<?xml version="1.0"?>
<VTKFile type="UnstructuredGrid" version="0.1" byte_order="LittleEndian">
  <UnstructuredGrid>
    <Piece NumberOfPoints="5292" NumberOfCells="15870">
      <Points>
        <DataArray type="Float32" NumberOfComponents="3" format="ascii">
-0.514848 0.856445 0.037866
-0.491446 0.870908 0
-0.525731 0.850651 0
-0.479196 0.876851 0.038768
-0.454715 0.890637 0
-0.502579 0.861055 0.077447
-0.441004 0.896629 0.039642
-0.415508 0.90959 0
-0.465504 0.881487 0.079284
-0.488832 0.864273 0.118642
-0.400258 0.915508 0.040477
-0.373841 0.927493 0
-0.425807 0.901176 0.081055
-0.45029 0.884587 0.121431
-0.473531 0.865881 0.161303
-0.356992 0.933196 0.041259
-0.329781 0.944057 0
-0.38349 0.919832 0.082733
-0.409056 0.904031 0.1241
-0.43349 0.885917 0.165036
-0.45662 0.865667 0.20523
-0.311301 0.949384 0.041975
-0.283458 0.958985 0
-0.338613 0.937143 0.08429
-0.365156 0.922297 0.126607
-0.390707 0.904947 0.168581
-0.415068 0.885252 0.209873
-0.438072 0.863428 0.25017
-0.263346 0.96376 0.04261
-0.235063 0.97198 0
-0.291301 0.952785 0.085697
-0.318678 0.939057 0.128908
-0.345235 0.922644 0.171877
-0.370747 0.903685 0.214243
-0.395019 0.882382 0.255661
-0.41789 0.858987 0.29582
-0.213357 0.976021 0.043152
-0.184856 0.982766 0
-0.241752 0.966437 0.086925
-0.269784 0.953974 0.130956
-0.297195 0.938668 0.174863
-0.323741 0.920627 0.21826
-0.349198 0.900032 0.260775
-0.373375 0.877125 0.302066
-0.396119 0.852198 0.341832
-0.161635 0.985887 0.043589
-0.133159 0.991095 0
-0.190238 0.977791 0.087946
-0.218712 0.966723 0.132706
-0.246789 0.95268 0.177473
-0.27421 0.935733 0.221841
-0.300728 0.916034 0.265412
-0.326123 0.893809 0.307812
-0.35021 0.869342 0.348708
-0.372844 0.842961 0.38782
-0.108547 0.993121 0.043908
-0.080352 0.996767 0
-0.137105 0.986574 0.088736
-0.165777 0.977001 0.134117
-0.194299 0.964352 0.179647
-0.222399 0.94866 0.224906
-0.249813 0.930042 0.269471
-0.276296 0.908697 0.312939
-0.301631 0.884891 0.354945
-0.325642 0.858949 0.395175
-0.348194 0.831231 0.433377
-0.054515 0.997538 0.044104
-0.026861 0.999639 0
-0.082762 0.992563 0.0892751
-0.111372 0.984546 0.135153
-0.140086 0.973394 0.181331
-0.168634 0.959094 0.227379
-0.196739 0.941724 0.272855
-0.224138 0.921447 0.31733
-0.250587 0.898506 0.360407
-0.275875 0.873212 0.401738
-0.299833 0.845924 0.441037
-0.322336 0.817026 0.478088
0 0.999024 0.044169
0.026861 0.999639 0
-0.027672 0.995598 0.089548
-0.055947 0.989157 0.135786
-0.084585 0.979564 0.182481
-0.113321 0.966761 0.229197
-0.14188 0.950779 0.275479
-0.169982 0.931743 0.320876
-0.197364 0.909863 0.364962
-0.223787 0.885426 0.407357
-0.249047 0.858781 0.44774
-0.272982 0.830312 0.485863
-0.295475 0.800424 0.521551
0.054515 0.997538 0.044104
0.080352 0.996767 0
0.027672 0.995598 0.089548
0 0.990709 0.135999
-0.028285 0.982694 0.183064
-0.056936 0.971451 0.230309
-0.085681 0.956964 0.277271
-0.114242 0.939312 0.323483
-0.142339 0.918668 0.368494
-0.16971 0.895289 0.411894
-0.196121 0.8695 0.453329
-0.221375 0.841679 0.492514
-0.245318 0.812231 0.529244
-0.267842 0.781571 0.56339
0.108547 0.993121 0.043908
0.133159 0.991095 0
0.082762 0.992563 0.0892751
0.055947 0.989157 0.135786
0.028285 0.982694 0.183064
0 0.973029 0.230683
-0.028654 0.960101 0.27818
-0.057403 0.943943 0.325078
-0.085962 0.924683 0.370907
-0.114056 0.902538 0.41523
-0.141425 0.877808 0.45766
-0.16784 0.850849 0.497881
-0.193112 0.822062 0.53565
-0.217095 0.791863 0.570809
-0.239686 0.760664 0.603275
0.161635 0.985887 0.043589
0.184856 0.982766 0
0.137105 0.986574 0.088736
0.111372 0.984546 0.135153
0.084585 0.979564 0.182481
0.056935 0.971451 0.230309
0.028654 0.960101 0.27818
0 0.945503 0.325615
-0.028749 0.927735 0.372131
-0.057308 0.906974 0.41727
-0.085403 0.88348 0.460618
-0.112779 0.857587 0.501823
-0.139215 0.829675 0.54061
-0.164526 0.800155 0.576786
-0.188574 0.769446 0.61024
-0.211263 0.737951 0.640934
0.213357 0.976021 0.043152
0.235063 0.97198 0
0.190238 0.977791 0.087946
0.165777 0.977001 0.134117
0.140086 0.973394 0.181331
0.113321 0.966761 0.229197
0.085681 0.956964 0.277271
0.057403 0.943943 0.325078
0.028749 0.927735 0.372131
0 0.908467 0.417957
-0.02856 0.886358 0.462118
-0.056661 0.861706 0.504234
-0.084052 0.834869 0.543994
-0.110518 0.806241 0.581173
-0.135885 0.776236 0.615625
-0.160018 0.745263 0.647285
-0.182827 0.71371 0.67616
0.263346 0.96376 0.04261
0.283458 0.958985 0
0.241752 0.966437 0.086925
0.218711 0.966724 0.132706
0.194299 0.964352 0.179647
0.168634 0.959094 0.227379
0.141879 0.950779 0.275479
0.114242 0.939312 0.323483
0.085962 0.924683 0.370907
0.057308 0.906974 0.41727
0.02856 0.886358 0.462118
0 0.863093 0.505045
-0.028106 0.837502 0.545711
-0.055514 0.809959 0.583853
-0.082017 0.780863 0.619295
-0.107445 0.750621 0.651939
-0.131673 0.719625 0.681764
-0.154614 0.688241 0.708815
0.311301 0.949384 0.041975
0.329781 0.944057 0
0.291301 0.952785 0.085697
0.269784 0.953974 0.130956
0.246789 0.95268 0.177473
0.222399 0.94866 0.224906
0.196739 0.941724 0.272855
0.169982 0.931743 0.320876
0.142339 0.918668 0.368494
0.114056 0.902538 0.41523
0.085403 0.88348 0.460618
0.056661 0.861706 0.504234
0.028106 0.837502 0.545711
0 0.81121 0.584755
-0.027421 0.783208 0.621155
-0.053957 0.753892 0.654779
-0.079446 0.723651 0.685578
-0.103767 0.692858 0.713569
-0.126839 0.66185 0.738828
0.356992 0.933196 0.041259
0.373841 0.927493 0
0.338613 0.937143 0.08429
0.318678 0.939057 0.128908
0.297195 0.938668 0.174863
0.27421 0.935733 0.221841
0.249813 0.930042 0.269471
0.224138 0.921447 0.31733
0.197364 0.909863 0.364962
0.16971 0.895289 0.411894
0.141425 0.877808 0.45766
0.112779 0.857587 0.501823
0.084052 0.834869 0.543994
0.055514 0.809959 0.583853
0.027421 0.783208 0.621155
0 0.754991 0.655735
-0.026556 0.72569 0.687509
-0.052094 0.695672 0.716468
-0.076498 0.665284 0.742661
-0.099691 0.634834 0.76619
0.400258 0.915508 0.040477
0.415508 0.90959 0
0.38349 0.919832 0.082733
0.365156 0.922297 0.126607
0.345235 0.922644 0.171877
0.323741 0.920627 0.21826
0.300728 0.916034 0.265412
0.276296 0.908697 0.312939
0.250587 0.898506 0.360407
0.223787 0.885426 0.407357
0.196121 0.8695 0.453329
0.16784 0.850849 0.497881
0.139215 0.829675 0.54061
0.110518 0.806241 0.581173
0.082017 0.780863 0.619295
0.053957 0.753892 0.654779
0.026556 0.72569 0.687509
0 0.696618 0.717442
-0.025566 0.667021 0.7446
-0.050032 0.637214 0.769061
-0.073325 0.607475 0.790948
0.441004 0.896629 0.039642
0.454715 0.890637 0
0.425807 0.901176 0.081055
0.409056 0.904031 0.1241
0.390707 0.904947 0.168581
0.370747 0.903685 0.214243
0.349198 0.900032 0.260775
0.326123 0.893809 0.307812
0.301632 0.884891 0.354945
0.275875 0.873212 0.401738
0.249047 0.858781 0.44774
0.221375 0.841679 0.492514
0.193112 0.822062 0.53565
0.164526 0.800155 0.576786
0.135885 0.776236 0.615625
0.107445 0.750621 0.651939
0.079446 0.723651 0.685578
0.052094 0.695672 0.716468
0.025566 0.667021 0.7446
0 0.638013 0.770026
-0.0245 0.608931 0.792844
-0.047865 0.580026 0.813191
0.479196 0.876851 0.038768
0.491446 0.870908 0
0.465505 0.881487 0.079284
0.45029 0.884587 0.121431
0.43349 0.885917 0.165036
0.415068 0.885252 0.209873
0.395019 0.882382 0.255661
0.373375 0.877125 0.302066
0.35021 0.869342 0.348708
0.325642 0.858949 0.395175
0.299833 0.845924 0.441037
0.272982 0.830312 0.485863
0.245318 0.812231 0.529244
0.217095 0.791863 0.570809
0.188575 0.769446 0.61024
0.160018 0.745263 0.647285
0.131673 0.719625 0.681764
0.103767 0.692858 0.713569
0.076498 0.665284 0.742661
0.050032 0.637214 0.769061
0.0245 0.608931 0.792844
0 0.580692 0.814124
-0.023402 0.552714 0.833042
0.514848 0.856445 0.037866
0.525731 0.850651 0
0.502579 0.861055 0.077447
0.488833 0.864272 0.118642
0.473531 0.865881 0.161303
0.45662 0.865667 0.20523
0.438072 0.863428 0.25017
0.41789 0.858987 0.29582
0.396119 0.852198 0.341832
0.372844 0.842961 0.38782
0.348194 0.831231 0.433377
0.322336 0.817026 0.478088
0.295475 0.800424 0.521551
0.267842 0.781571 0.56339
0.239686 0.760664 0.603275
0.211264 0.737951 0.640934
0.182827 0.71371 0.67616
0.154614 0.688241 0.708815
0.126839 0.66185 0.738828
0.099691 0.634834 0.76619
0.073325 0.607475 0.790948
0.047865 0.580026 0.813191
0.023402 0.552714 0.833042
0 0.525731 0.850651
0.552714 0.833042 0.023402
0.541924 0.838083 0.062728
0.580026 0.813191 0.047865
0.569289 0.817345 0.088643
0.607475 0.790948 0.073325
0.529647 0.841845 0.103785
0.596737 0.794077 0.115525
0.634834 0.76619 0.099691
0.556957 0.820121 0.13115
0.515783 0.84411 0.146447
0.624025 0.76816 0.143257
0.66185 0.738828 0.126839
0.584288 0.795732 0.159431
0.542921 0.821298 0.175232
0.500248 0.844659 0.190535
0.650883 0.739511 0.171683
0.688242 0.708815 0.154614
0.611382 0.768562 0.188479
0.570011 0.79569 0.204855
0.527092 0.820656 0.220675
0.482984 0.843278 0.235815
0.677015 0.708099 0.200618
0.71371 0.67616 0.182827
0.637954 0.738542 0.218107
0.596782 0.767179 0.235134
0.553812 0.793736 0.251547
0.509408 0.817988 0.267207
0.463964 0.839771 0.281996
0.70211 0.673954 0.22984
0.737951 0.640934 0.211263
0.663696 0.705661 0.248093
0.622936 0.735715 0.265848
0.580129 0.763806 0.282934
0.535632 0.789671 0.299195
0.489845 0.813107 0.314498
0.443196 0.833972 0.328736
0.725857 0.637179 0.259102
0.760664 0.603275 0.239686
0.688289 0.669978 0.278185
0.648157 0.701312 0.29674
0.605736 0.730839 0.314578
0.561367 0.75826 0.331525
0.515451 0.783328 0.347429
0.468423 0.805863 0.362166
0.420737 0.825753 0.375648
0.747955 0.597946 0.28814
0.781571 0.56339 0.267842
0.711419 0.631628 0.308105
0.672124 0.664062 0.327524
0.630312 0.694881 0.346189
0.586304 0.723754 0.363905
0.540488 0.750395 0.380499
0.493301 0.77458 0.395828
0.44521 0.796155 0.409788
0.396688 0.815041 0.422312
0.768128 0.556502 0.316679
0.800424 0.521551 0.295475
0.732787 0.590825 0.337562
0.694522 0.624139 0.357896
0.653537 0.656063 0.377452
0.610123 0.686239 0.396013
0.564647 0.714344 0.413383
0.517538 0.740115 0.429399
0.469268 0.763354 0.443936
0.420325 0.783937 0.456913
0.371195 0.80182 0.468294
0.786143 0.513161 0.344449
0.817026 0.478088 0.322336
[...]
      <CellData>
        <DataArray type="Float32" Name="Sol_0Magnitude" format="ascii">
3.4227e-22
3.44058e-22
3.36836e-22
3.3853e-22
3.42302e-22
3.41887e-22
3.32155e-22
3.33813e-22
3.36131e-22
3.36487e-22
3.40286e-22
3.40395e-22
3.39792e-22
3.28252e-22
3.29749e-22
3.30987e-22
3.31847e-22
3.34827e-22
3.34344e-22
3.34485e-22
3.38339e-22
3.38473e-22
3.37637e-22
3.25132e-22
3.26403e-22
3.26789e-22
3.27955e-22
3.30257e-22
3.29407e-22
3.30012e-22
3.32963e-22
3.32611e-22
3.32523e-22
3.36425e-22
3.36559e-22
3.35488e-22
3.22806e-22
3.23808e-22
3.23493e-22
3.24827e-22
3.26538e-22
3.2547e-22
3.26342e-22
3.28558e-22
3.27915e-22
3.28281e-22
3.31205e-22
3.30923e-22
3.30616e-22
3.34549e-22
3.34662e-22
3.33375e-22
3.21292e-22
3.21994e-22
3.2108e-22
3.22487e-22
3.23655e-22
3.22473e-22
3.23474e-22
3.25063e-22
3.24263e-22
3.24878e-22
3.27015e-22
3.26503e-22
3.26651e-22
3.29539e-22
3.29289e-22
3.28784e-22
3.32723e-22
3.32791e-22
3.31321e-22
3.20618e-22
3.20996e-22
3.19553e-22
3.20963e-22
3.21612e-22
3.20394e-22
3.21429e-22
3.22453e-22
3.21588e-22
3.22311e-22
3.23783e-22
3.23162e-22
3.23555e-22
3.25607e-22
3.25175e-22
3.25134e-22
3.27967e-22
3.27724e-22
3.2705e-22
3.30961e-22
3.30967e-22
3.29352e-22
3.20828e-22
3.20856e-22
3.18934e-22
3.20295e-22
3.20428e-22
3.19239e-22
3.20237e-22
3.20727e-22
3.19867e-22
3.20598e-22
3.21479e-22
3.20834e-22
3.21324e-22
3.22674e-22
3.22175e-22
3.2238e-22
3.24333e-22
3.23949e-22
3.23748e-22
3.26501e-22
3.26245e-22
3.25436e-22
3.29281e-22
3.29212e-22
3.27498e-22
3.21977e-22
3.21628e-22
3.19265e-22
3.20532e-22
3.20135e-22
3.19036e-22
3.19942e-22
3.19905e-22
3.19109e-22
3.19775e-22
3.20101e-22
3.19497e-22
3.19979e-22
3.20709e-22
3.20222e-22
3.20516e-22
3.21733e-22
3.2132e-22
3.21366e-22
3.23198e-22
3.22844e-22
3.22514e-22
3.25156e-22
3.24877e-22
3.2397e-22
3.27705e-22
3.27552e-22
3.25786e-22
3.24134e-22
3.23376e-22
3.20604e-22
3.21735e-22
3.2078e-22
3.19832e-22
3.206e-22
3.20025e-22
3.1935e-22
3.19892e-22
3.19672e-22
3.19163e-22
3.19558e-22
3.19709e-22
3.19294e-22
3.19568e-22
3.20135e-22
3.19766e-22
3.19898e-22
3.20962e-22
3.20613e-22
3.20529e-22
3.22216e-22
3.21882e-22
3.21451e-22
3.23949e-22
3.23643e-22
3.22674e-22
3.26255e-22
3.26013e-22
3.24243e-22
3.27386e-22
3.26179e-22
3.23026e-22
3.23976e-22
3.22428e-22
3.21696e-22
3.2228e-22
3.21139e-22
3.20643e-22
3.2101e-22
3.20234e-22
3.19875e-22
3.20119e-22
3.197e-22
3.1941e-22
3.1958e-22
3.19539e-22
3.19273e-22
3.19373e-22
3.19757e-22
3.19484e-22
3.1948e-22
3.20368e-22
3.20072e-22
3.19886e-22
3.21399e-22
3.21079e-22
3.2058e-22
3.22898e-22
3.22564e-22
3.21569e-22
3.2495e-22
3.24623e-22
3.22889e-22
3.31838e-22
3.30131e-22
3.26624e-22
3.27347e-22
3.25156e-22
3.24711e-22
3.25066e-22
3.23319e-22
3.23065e-22
3.23209e-22
3.21846e-22
3.21693e-22
3.21732e-22
3.2073e-22
3.20619e-22
3.20616e-22
3.19975e-22
3.19862e-22
3.19842e-22
3.19588e-22
3.19445e-22
3.194e-22
3.19579e-22
3.19389e-22
3.19274e-22
3.19962e-22
3.19714e-22
3.19449e-22
3.2076e-22
3.20454e-22
3.19912e-22
3.22016e-22
3.21658e-22
3.20668e-22
3.23806e-22
3.23404e-22
3.21744e-22
3.37615e-22
3.35347e-22
3.3151e-22
3.31958e-22
3.29063e-22
3.28986e-22
3.29062e-22
3.26653e-22
3.26714e-22
3.26585e-22
3.24588e-22
3.24708e-22
3.24487e-22
3.22866e-22
3.22991e-22
3.22754e-22
3.21495e-22
3.21591e-22
3.21376e-22
3.20488e-22
3.20529e-22
3.20345e-22
3.19854e-22
3.19823e-22
3.19653e-22
3.19604e-22
3.19491e-22
3.19284e-22
3.19748e-22
3.19549e-22
3.19223e-22
3.20306e-22
3.20019e-22
3.19457e-22
3.21314e-22
3.20941e-22
3.19981e-22
3.22838e-22
3.22376e-22
3.20815e-22
3.44869e-22
3.41969e-22
3.37827e-22
3.37944e-22
3.34264e-22
3.3465e-22
3.34395e-22
3.31251e-22
3.31711e-22
3.31256e-22
3.28559e-22
3.29026e-22
3.28493e-22
3.26196e-22
3.26627e-22
3.26096e-22
3.24175e-22
3.24541e-22
3.24063e-22
3.22515e-22
3.22797e-22
3.22395e-22
3.21232e-22
3.21417e-22
3.21088e-22
3.20335e-22
3.20413e-22
3.20132e-22
3.19832e-22
3.19798e-22
3.19513e-22
3.19729e-22
3.19582e-22
3.19214e-22
3.20042e-22
3.19781e-22
3.19216e-22
3.20798e-22
3.20421e-22
3.19511e-22
3.22055e-22
3.21551e-22
3.20108e-22
3.53789e-22
3.5017e-22
3.45742e-22
3.45469e-22
3.40907e-22
3.41866e-22
3.41223e-22
3.37247e-22
3.38208e-22
3.37371e-22
3.33884e-22
3.3479e-22
3.33885e-22
3.3083e-22
3.31649e-22
3.30764e-22
3.28112e-22
3.28823e-22
3.28016e-22
3.25754e-22
3.26344e-22
3.25648e-22
3.23778e-22
3.24238e-22
3.23664e-22
3.22198e-22
3.22525e-22
3.22062e-22
3.21024e-22
3.21213e-22
3.20832e-22
3.20258e-22
3.20309e-22
3.19956e-22
3.19903e-22
3.19815e-22
3.19414e-22
3.19966e-22
3.19742e-22
3.19184e-22
3.2047e-22
3.20105e-22
3.19254e-22
3.21459e-22
3.20937e-22
3.19621e-22
3.64601e-22
3.60162e-22
3.55476e-22
3.54741e-22
3.49166e-22
3.50838e-22
3.49741e-22
3.44808e-22
3.46394e-22
3.45109e-22
3.40713e-22
3.42173e-22
3.40831e-22
3.36909e-22
3.38218e-22
3.36914e-22
3.3343e-22
3.34577e-22
3.33375e-22
3.3031e-22
3.31291e-22
3.30231e-22
3.27581e-22
3.28395e-22
3.27496e-22
3.25264e-22
3.2591e-22
3.25173e-22
3.23371e-22
3.23851e-22
3.2326e-22
3.21907e-22
3.22221e-22
3.21744e-22
3.20872e-22
3.21021e-22
3.20604e-22
3.20259e-22
3.20248e-22
3.19815e-22
3.20072e-22
3.19901e-22
3.19354e-22
3.20324e-22
3.1999e-22
3.19201e-22
3.2105e-22
3.20536e-22
3.19348e-22
3.77586e-22
3.72214e-22
3.67304e-22
3.66015e-22
3.59261e-22
3.61827e-22
3.6019e-22
3.54134e-22
3.56512e-22
3.547e-22
3.49236e-22
3.51399e-22
3.49545e-22
3.44602e-22
3.46539e-22
3.4474e-22
3.40281e-22
3.4199e-22
3.40315e-22
3.36319e-22
3.37805e-22
3.36301e-22
3.32757e-22
3.34026e-22
3.32719e-22
3.29627e-22
3.30686e-22
3.29587e-22
3.26949e-22
3.27804e-22
3.26904e-22
3.24731e-22
3.25384e-22
3.24666e-22
3.22969e-22
3.23429e-22
3.22855e-22
3.21658e-22
3.21929e-22
3.21444e-22
3.20786e-22
3.20874e-22
3.20408e-22
3.2035e-22
3.20257e-22
3.19716e-22
3.20353e-22
3.20076e-22
3.19344e-22
3.20822e-22
3.20344e-22
3.19278e-22
3.9309e-22
3.86661e-22
3.81578e-22
3.79613e-22
3.71457e-22
3.75167e-22
3.7288e-22
3.6548e-22
3.68881e-22
3.66438e-22
3.59684e-22
3.62762e-22
3.60295e-22
3.54123e-22
3.56879e-22
3.54488e-22
3.48856e-22
3.51301e-22
3.49062e-22
3.43948e-22
3.46097e-22
3.4406e-22
3.39453e-22
3.41322e-22
3.39518e-22
3.35415e-22
3.37017e-22
3.35463e-22
3.31861e-22
3.33209e-22
3.31904e-22
3.28805e-22
3.29911e-22
3.28844e-22
3.2625e-22
3.27121e-22
3.26266e-22
3.24185e-22
3.24832e-22
3.2415e-22
3.22596e-22
3.23027e-22
3.22466e-22
3.21467e-22
3.21689e-22
3.21178e-22
3.20783e-22
3.20801e-22
3.20255e-22
3.20545e-22
3.20357e-22
3.1967e-22
3.20768e-22
3.20357e-22
3.19403e-22
4.11534e-22
4.03923e-22
3.98763e-22
3.95947e-22
3.86086e-22
3.91303e-22
3.88208e-22
3.79158e-22
3.83912e-22
3.80692e-22
3.72352e-22
3.76647e-22
3.73432e-22
3.65737e-22
3.69592e-22
3.66484e-22
3.59397e-22
3.62835e-22
3.5991e-22
3.53415e-22
3.5646e-22
3.53773e-22
3.47856e-22
3.50538e-22
3.48126e-22
3.42786e-22
3.45124e-22
3.43009e-22
3.3824e-22
3.40258e-22
3.38444e-22
3.34241e-22
3.35957e-22
3.34436e-22
3.30798e-22
3.32225e-22
3.30977e-22
3.27899e-22
3.29054e-22
3.2805e-22
3.25529e-22
3.26425e-22
3.25621e-22
3.23665e-22
3.24312e-22
3.23656e-22
3.22281e-22
3.22692e-22
3.22117e-22
3.21357e-22
3.21536e-22
3.20966e-22
3.20887e-22
3.20829e-22
3.2017e-22
3.20878e-22
3.20567e-22
3.19712e-22
4.33421e-22
4.2452e-22
4.19463e-22
4.15535e-22
4.03562e-22
4.10819e-22
4.06679e-22
3.95566e-22
4.02166e-22
3.97957e-22
3.87611e-22
3.93583e-22
3.89424e-22
3.79791e-22
3.8517e-22
3.81159e-22
3.72218e-22
3.77039e-22
3.73254e-22
3.64991e-22
3.69295e-22
3.65801e-22
3.58211e-22
3.62033e-22
3.58867e-22
3.5195e-22
3.55325e-22
3.52514e-22
3.46265e-22
3.49222e-22
3.46772e-22
3.41188e-22
3.43756e-22
3.4166e-22
3.36732e-22
3.38937e-22
3.37178e-22
3.32891e-22
3.34754e-22
3.33304e-22
3.29649e-22
3.31189e-22
3.30012e-22
3.26976e-22
3.28214e-22
3.27263e-22
3.24839e-22
3.2579e-22
3.25013e-22
3.23209e-22
3.23883e-22
3.23219e-22
3.22056e-22
3.22458e-22
3.21838e-22
3.21366e-22
3.2149e-22
3.20833e-22
3.2114e-22
3.20964e-22
3.20189e-22
4.59286e-22
4.49094e-22
4.44473e-22
4.39051e-22
4.24398e-22
4.34506e-22
4.28972e-22
4.15212e-22
4.24415e-22
4.18888e-22
4.05944e-22
4.14299e-22
4.08888e-22
3.96734e-22
4.04294e-22
3.99096e-22
3.87723e-22
3.94545e-22
3.89641e-22
3.79052e-22
3.85182e-22
3.80637e-22
3.70843e-22
3.76326e-22
3.72189e-22
3.63193e-22
3.68076e-22
3.64373e-22
3.5618e-22
3.60506e-22
3.57244e-22
3.49847e-22
3.53654e-22
3.50829e-22
3.44219e-22
3.47545e-22
3.45135e-22
3.39297e-22
3.42173e-22
3.40147e-22
3.35058e-22
3.37519e-22
3.35839e-22
3.31472e-22
3.33547e-22
3.32167e-22
3.28502e-22
3.30214e-22
3.29086e-22
3.26103e-22
3.27475e-22
3.26544e-22
3.24236e-22
3.25279e-22
3.24491e-22
3.22867e-22
3.23583e-22
3.22874e-22
3.21971e-22
3.22345e-22
3.21649e-22
3.21542e-22
3.21538e-22
3.20796e-22
4.89402e-22
4.78369e-22
4.74862e-22
4.67368e-22
4.49246e-22
4.63488e-22
4.55994e-22
4.38755e-22
4.51737e-22
4.44375e-22
4.27995e-22
4.39833e-22
4.32689e-22
4.1717e-22
4.27958e-22
4.21116e-22
4.06478e-22
4.16276e-22
4.0983e-22
3.96106e-22
4.0497e-22
3.9899e-22
3.86209e-22
3.94193e-22
3.88736e-22
3.76919e-22
3.84073e-22
3.79174e-22
3.68332e-22
3.74712e-22
3.70381e-22
3.60522e-22
3.66178e-22
3.624e-22
3.53513e-22
3.58503e-22
3.55252e-22
3.47318e-22
3.51691e-22
3.48926e-22
3.41919e-22
3.45726e-22
3.43397e-22
3.37279e-22
3.40568e-22
3.38621e-22
3.33355e-22
3.36168e-22
3.34548e-22
3.30094e-22
3.32465e-22
3.31118e-22
3.27444e-22
3.294e-22
3.28274e-22
3.25358e-22
3.26911e-22
3.25951e-22
3.23789e-22
3.24937e-22
3.2409e-22
3.22698e-22
3.23415e-22
3.22611e-22
3.22058e-22
3.22271e-22
3.21343e-22
5.0808e-22
5.43508e-22
5.21289e-22
5.00371e-22
4.94256e-22
4.78958e-22
5.87768e-22
5.60528e-22
5.32179e-22
5.07122e-22
4.86561e-22
4.80032e-22
4.67104e-22
6.44279e-22
6.10259e-22
5.72225e-22
5.41854e-22
5.25567e-22
5.14895e-22
4.9202e-22
4.72301e-22
4.65666e-22
4.54632e-22
7.17803e-22
6.74506e-22
6.2322e-22
5.85172e-22
5.64255e-22
5.49938e-22
5.22283e-22
5.07367e-22
4.97158e-22
4.764e-22
4.57889e-22
4.51397e-22
4.41926e-22
8.15047e-22
7.58959e-22
6.88903e-22
6.39781e-22
6.12695e-22
5.93536e-22
5.59244e-22
5.406e-22
5.27252e-22
5.02323e-22
4.89182e-22
4.79341e-22
4.60646e-22
4.43595e-22
4.3747e-22
4.29268e-22
9.45421e-22
8.71656e-22
7.74373e-22
7.09229e-22
6.7397e-22
6.4801e-22
6.04579e-22
5.81272e-22
5.63732e-22
5.33243e-22
5.17226e-22
5.04713e-22
4.82483e-22
4.71308e-22
4.61809e-22
4.45118e-22
4.29673e-22
4.24073e-22
4.1688e-22
1.12163e-21
1.02373e-21
8.86354e-22
7.97971e-22
7.52064e-22
7.16226e-22
6.6023e-22
6.31176e-22
6.07883e-22
5.70081e-22
5.50702e-22
5.34635e-22
5.07879e-22
4.94575e-22
4.82837e-22
4.63207e-22
4.54041e-22
4.44905e-22
4.30114e-22
4.16341e-22
4.1138e-22
4.04977e-22
1.35928e-21
1.22971e-21
1.03321e-21
9.11208e-22
8.51786e-22
8.01315e-22
7.28226e-22
6.92337e-22
6.60987e-22
6.13668e-22
5.90513e-22
5.6968e-22
5.37225e-22
5.2162e-22
5.06954e-22
4.83728e-22
4.73013e-22
4.62061e-22
4.44885e-22
4.37647e-22
4.28904e-22
4.1588e-22
4.0379e-22
3.99527e-22
3.93725e-22
1.67364e-21
1.50609e-21
1.22378e-21
1.05394e-21
9.78346e-22
9.06119e-22
8.10218e-22
7.66669e-22
7.2404e-22
6.64577e-22
6.37385e-22
6.10185e-22
5.7071e-22
5.52771e-22
5.34278e-22
5.06719e-22
4.94512e-22
4.81199e-22
4.61213e-22
4.52864e-22
4.42716e-22
4.27788e-22
4.22309e-22
4.14021e-22
4.02609e-22
3.92152e-22
3.886e-22
3.83259e-22
2.07019e-21
1.8651e-21
1.46389e-21
1.2288e-21
1.13592e-21
1.03188e-21
9.06618e-22
8.55331e-22
7.97125e-22
7.22695e-22
6.91626e-22
6.55996e-22
6.08137e-22
5.88051e-22
5.6465e-22
5.32037e-22
5.18493e-22
5.022e-22
4.78987e-22
4.69689e-22
4.5771e-22
4.4063e-22
4.34338e-22
4.25015e-22
4.12109e-22
4.08176e-22
4.00396e-22
3.90427e-22
3.81514e-22
3.78655e-22
3.73667e-22
2.52732e-21
2.30121e-21
1.74931e-21
1.43194e-21
1.32452e-21
1.1758e-21
1.0151e-21
9.57608e-22
8.78563e-22
7.86673e-22
7.52604e-22
7.06123e-22
6.4871e-22
6.26998e-22
5.97464e-22
5.59184e-22
5.44654e-22
5.24685e-22
4.979e-22
4.87901e-22
4.73663e-22
4.54219e-22
4.47325e-22
4.3664e-22
4.22112e-22
4.17546e-22
4.0906e-22
3.97946e-22
3.95324e-22
3.88099e-22
3.79417e-22
3.71925e-22
3.69705e-22
3.65003e-22
2.97799e-21
2.77089e-21
2.05565e-21
1.64768e-21
1.53523e-21
1.3282e-21
1.12907e-21
1.06932e-21
9.63952e-22
8.53343e-22
8.18157e-22
7.58319e-22
6.90767e-22
6.68431e-22
6.31498e-22
5.87237e-22
5.72292e-22
5.47964e-22
5.17419e-22
5.07081e-22
4.90166e-22
4.68234e-22
4.60997e-22
4.48656e-22
4.32431e-22
4.27453e-22
4.18002e-22
4.05695e-22
4.02522e-22
3.94868e-22
3.85334e-22
3.83785e-22
3.77135e-22
3.69591e-22
3.63386e-22
3.61743e-22
3.57285e-22
3.31361e-21
3.18204e-21
2.33269e-21
1.84572e-21
1.74538e-21
1.47078e-21
1.23659e-21
1.18135e-21
1.04551e-21
9.17364e-22
8.84092e-22
8.08887e-22
7.31655e-22
7.10207e-22
6.64818e-22
6.14789e-22
6.00242e-22
5.70954e-22
5.36737e-22
5.26544e-22
5.06584e-22
4.82207e-22
4.74944e-22
4.60699e-22
4.42777e-22
4.37628e-22
4.2701e-22
4.135e-22
4.10001e-22
4.01712e-22
3.91317e-22
3.89235e-22
3.82395e-22
3.74242e-22
3.73532e-22
3.67471e-22
3.60941e-22
3.55865e-22
3.54724e-22
3.50498e-22
3.43135e-21
3.41987e-21
2.51505e-21
1.98665e-21
1.91913e-21
1.57925e-21
1.32197e-21
1.27964e-21
1.11289e-21
9.71679e-22
9.44154e-22
8.52895e-22
7.67905e-22
7.49238e-22
6.94881e-22
6.39974e-22
6.26858e-22
5.92249e-22
5.5481e-22
5.45345e-22
5.22105e-22
4.95521e-22
4.88593e-22
4.72265e-22
4.52776e-22
4.47707e-22
4.35771e-22
4.21136e-22
4.17518e-22
4.08439e-22
3.97225e-22
3.94828e-22
3.87611e-22
3.78867e-22
3.77605e-22
3.71539e-22
3.646e-22
3.64521e-22
3.59045e-22
3.53416e-22
3.49313e-22
3.48599e-22
3.44607e-22
3.29895e-21
3.41063e-21
2.55314e-21
2.03751e-21
2.01794e-21
1.63144e-21
1.37023e-21
1.34815e-21
1.15568e-21
1.00905e-21
9.90957e-22
8.8513e-22
7.95751e-22
7.81828e-22
7.18873e-22
6.60726e-22
6.50122e-22
6.10241e-22
5.70459e-22
5.62355e-22
5.35771e-22
5.07463e-22
5.01253e-22
4.82767e-22
4.62003e-22
4.57262e-22
4.4393e-22
4.28333e-22
4.24782e-22
4.14822e-22
4.02886e-22
4.0035e-22
3.92633e-22
3.83357e-22
3.81749e-22
3.75507e-22
3.68191e-22
3.67514e-22
3.62176e-22
3.56308e-22
3.56672e-22
3.51762e-22
3.46947e-22
3.4366e-22
3.433e-22
3.3956e-22
2.97492e-21
3.171e-21
2.44241e-21
1.98913e-21
2.01877e-21
1.61765e-21
1.37316e-21
1.37448e-21
1.16715e-21
1.02425e-21
1.01792e-21
9.01462e-22
8.12074e-22
8.04378e-22
7.3432e-22
6.75196e-22
6.68017e-22
6.23436e-22
5.82534e-22
5.7636e-22
5.46642e-22
5.17321e-22
5.12186e-22
4.91605e-22
4.69989e-22
4.65817e-22
4.51072e-22
4.34793e-22
4.31478e-22
4.20594e-22
4.08118e-22
4.05577e-22
3.97295e-22
3.87599e-22
3.85789e-22
3.79263e-22
3.71639e-22
3.70557e-22
3.65193e-22
3.59124e-22
3.58831e-22
3.54166e-22
3.49254e-22
3.49896e-22
3.4553e-22
3.41453e-22
3.38833e-22
3.38758e-22
3.35299e-22
2.56324e-21
2.79098e-21
2.22435e-21
1.8602e-21
1.92642e-21
1.54496e-21
1.33271e-21
1.3551e-21
1.1468e-21
1.01593e-21
1.0215e-21
9.0024e-22
8.15289e-22
8.1439e-22
7.39752e-22
6.82122e-22
6.78896e-22
6.30723e-22
5.90147e-22
5.86288e-22
5.53938e-22
5.24488e-22
5.20698e-22
4.98227e-22
4.76335e-22
4.72907e-22
4.56839e-22
4.40248e-22
4.37292e-22
4.25498e-22
4.12727e-22
4.10283e-22
4.01406e-22
3.91465e-22
3.8955e-22
3.82684e-22
3.74867e-22
3.73499e-22
3.68013e-22
3.61813e-22
3.61041e-22
3.56464e-22
3.51495e-22
3.51412e-22
3.47367e-22
3.4332e-22
3.44096e-22
3.40243e-22
3.36848e-22
3.34754e-22
3.34903e-22
3.31756e-22
2.154e-21
2.37292e-21
1.95836e-21
1.68498e-21
1.76931e-21
1.43266e-21
1.25961e-21
1.29661e-21
1.10038e-21
9.86984e-22
1.00238e-21
8.82701e-22
8.0578e-22
8.11167e-22
7.35045e-22
6.81186e-22
6.81901e-22
6.31654e-22
5.92865e-22
5.91437e-22
5.57188e-22
5.28575e-22
5.26257e-22
5.02255e-22
4.80731e-22
4.78147e-22
4.60918e-22
4.44463e-22
4.41933e-22
4.293e-22
4.16565e-22
4.14262e-22
4.04809e-22
3.94853e-22
3.9287e-22
3.85643e-22
3.77804e-22
3.76206e-22
3.70542e-22
3.64333e-22
3.63174e-22
3.58592e-22
3.53644e-22
3.52997e-22
3.49125e-22
3.45147e-22
3.45119e-22
3.41648e-22
3.38396e-22
3.39166e-22
3.35804e-22
3.33053e-22
3.31348e-22
3.31657e-22
3.28869e-22
1.7969e-21
1.98664e-21
1.6937e-21
1.49713e-21
1.58335e-21
1.30295e-21
1.16823e-21
1.21222e-21
1.03699e-21
9.43094e-22
9.65025e-22
8.5234e-22
7.85642e-22
7.95945e-22
7.21397e-22
6.73057e-22
6.77154e-22
6.26505e-22
5.90792e-22
5.91594e-22
5.56336e-22
5.29495e-22
5.28576e-22
5.0351e-22
4.83042e-22
4.8127e-22
4.63118e-22
4.47317e-22
4.45196e-22
4.31833e-22
4.19521e-22
4.17338e-22
4.07348e-22
3.97681e-22
3.95612e-22
3.8803e-22
3.80402e-22
3.78558e-22
3.72699e-22
3.66658e-22
3.65118e-22
3.60488e-22
3.55693e-22
3.54529e-22
3.50753e-22
3.46934e-22
3.4623e-22
3.43006e-22
3.39941e-22
3.39817e-22
3.36886e-22
3.34381e-22
3.35013e-22
3.32127e-22
3.29992e-22
3.28548e-22
3.28953e-22
3.26583e-22
1.50674e-21
1.66221e-21
1.45807e-21
1.31948e-21
1.39777e-21
1.17324e-21
1.07143e-21
1.11615e-21
9.65855e-22
8.90826e-22
9.15792e-22
8.13719e-22
7.58029e-22
7.71388e-22
7.00885e-22
6.59136e-22
6.65686e-22
6.16141e-22
5.84502e-22
5.87053e-22
5.5167e-22
5.27453e-22
5.27662e-22
5.02025e-22
4.83312e-22
4.82188e-22
4.63373e-22
4.48795e-22
4.46951e-22
4.32993e-22
4.21567e-22
4.19392e-22
4.0893e-22
3.99931e-22
3.97667e-22
3.89754e-22
3.82648e-22
3.80458e-22
3.74407e-22
3.68789e-22
3.66784e-22
3.62092e-22
3.57652e-22
3.55919e-22
3.52203e-22
3.48698e-22
3.47316e-22
3.44279e-22
3.41515e-22
3.40567e-22
3.37963e-22
3.35768e-22
3.35378e-22
3.32982e-22
3.31198e-22
3.31544e-22
3.29137e-22
3.27603e-22
3.26294e-22
3.26715e-22
3.2484e-22
1.27897e-21
1.40283e-21
1.26084e-21
1.16322e-21
1.22966e-21
1.05395e-21
9.78259e-22
1.01971e-21
8.94236e-22
8.35891e-22
8.61021e-22
7.71074e-22
7.26158e-22
7.40775e-22
6.75812e-22
6.4117e-22
6.49054e-22
6.01737e-22
5.74931e-22
5.78524e-22
5.43748e-22
5.2292e-22
5.23802e-22
4.98028e-22
4.81774e-22
4.80967e-22
4.61736e-22
4.4901e-22
4.47184e-22
4.32754e-22
4.22765e-22
4.20364e-22
4.09492e-22
4.01643e-22
3.98967e-22
3.90749e-22
3.84579e-22
3.81838e-22
3.75604e-22
3.70766e-22
3.68102e-22
3.63351e-22
3.59571e-22
3.57092e-22
3.5344e-22
3.50505e-22
3.48295e-22
3.4544e-22
3.43177e-22
3.41319e-22
3.39009e-22
3.37273e-22
3.35857e-22
3.33885e-22
3.32549e-22
3.31691e-22
3.2986e-22
3.28794e-22
3.28669e-22
3.26779e-22
3.25841e-22
3.24537e-22
3.24854e-22
3.23571e-22
1.10134e-21
1.19958e-21
1.10087e-21
1.03128e-21
1.08573e-21
9.49499e-22
8.93632e-22
9.29945e-22
8.26621e-22
7.82339e-22
8.05721e-22
7.27708e-22
6.92821e-22
7.07171e-22
6.48288e-22
6.20922e-22
6.29031e-22
5.84512e-22
5.63109e-22
5.66959e-22
5.33205e-22
5.1649e-22
5.17457e-22
4.91811e-22
4.78787e-22
4.77821e-22
4.58312e-22
4.48188e-22
4.45964e-22
4.31123e-22
4.23274e-22
4.20262e-22
4.08997e-22
4.02937e-22
3.99483e-22
3.9096e-22
3.86305e-22
3.82652e-22
3.76239e-22
3.72696e-22
3.69023e-22
3.64226e-22
3.61555e-22
3.57996e-22
3.5443e-22
3.52454e-22
3.49111e-22
3.46464e-22
3.45034e-22
3.41994e-22
3.40013e-22
3.39014e-22
3.36355e-22
3.34828e-22
3.34154e-22
3.3197e-22
3.30704e-22
3.30261e-22
3.28664e-22
3.27482e-22
3.27164e-22
3.26315e-22
3.25028e-22
3.24688e-22
3.23226e-22
3.2317e-22
3.22567e-22
5.28839e-22
5.13193e-22
5.70091e-22
5.52713e-22
5.52713e-22
5.70091e-22
5.48749e-22
6.23433e-22
6.0196e-22
5.99447e-22
5.99447e-22
6.0196e-22
6.23433e-22
5.93637e-22
6.93928e-22
6.65665e-22
6.6187e-22
6.66337e-22
6.26043e-22
6.66336e-22
6.6187e-22
6.65663e-22
6.9393e-22
6.51947e-22
7.89284e-22
7.50417e-22
7.46961e-22
7.57468e-22
7.01782e-22
7.56527e-22
7.56526e-22
7.01782e-22
7.57468e-22
7.4696e-22
7.50418e-22
7.89286e-22
7.29157e-22
9.21535e-22
8.66114e-22
8.66012e-22
8.86101e-22
8.07314e-22
8.86844e-22
8.93643e-22
8.1357e-22
8.93644e-22
8.86844e-22
8.07314e-22
8.86102e-22
8.66009e-22
8.66113e-22
9.2154e-22
8.33292e-22
1.10964e-21
1.02813e-21
1.03774e-21
1.07487e-21
9.59618e-22
1.08305e-21
1.10262e-21
9.802e-22
1.10579e-21
1.10579e-21
9.802e-22
1.10262e-21
1.08305e-21
9.59616e-22
1.07487e-21
1.03775e-21
1.02813e-21
1.10963e-21
9.76334e-22
1.38336e-21
1.26035e-21
1.29364e-21
1.36373e-21
1.18845e-21
1.39362e-21
1.44093e-21
1.24249e-21
1.45865e-21
1.47547e-21
1.26184e-21
1.47547e-21
1.45865e-21
1.24249e-21
1.44093e-21
1.39362e-21
1.18846e-21
1.36373e-21
1.29364e-21
1.26035e-21
1.38337e-21
1.1759e-21
1.78747e-21
1.59917e-21
1.68734e-21
1.82537e-21
1.54774e-21
1.9144e-21
2.02834e-21
1.68344e-21
2.09619e-21
2.16189e-21
1.76133e-21
2.18748e-21
2.18748e-21