<VTKFile type="UnstructuredGrid" version="0.1" byte_order="LittleEndian">
  <UnstructuredGrid>
    <Piece NumberOfPoints="12" NumberOfCells="20">
      <PointData TCoords="TCoords_">
        <DataArray type="Float32" Name="TCoords_" NumberOfComponents="2" format="ascii" RangeMin="0.5" RangeMax="1.4142135624">
          0.5 0 1 1 0 1
          1 1 1 1 1 1
          0.5 0 0.5 0 0.5 0
          1 1 0 1 1 1
        </DataArray>
      </PointData>
      <CellData>
      </CellData>
      <Points>
        <DataArray type="Float32" Name="Points" NumberOfComponents="3" format="ascii" RangeMin="0.95105652328" RangeMax="0.95105652328">
          0 0.5 0.80901700258 0.5 0.80901700258 0
          -0.5 0.80901700258 0 0.80901700258 0 0.5
          0.80901700258 0 -0.5 0 0.5 -0.80901700258
          -0.80901700258 0 -0.5 -0.80901700258 0 0.5
          0 -0.5 0.80901700258 -0.5 -0.80901700258 0
          0.5 -0.80901700258 0 0 -0.5 -0.80901700258
        </DataArray>
      </Points>
      <Cells>
        <DataArray type="Int64" Name="connectivity" format="ascii" RangeMin="0" RangeMax="11">
          0 1 2 0 3 1
          3 4 1 4 5 1
          5 2 1 6 2 5
          7 2 6 7 0 2
          8 9 10 8 10 3
          10 4 3 10 11 4
          10 9 11 9 6 11
          9 7 6 9 8 7
          0 7 8 0 8 3
          4 11 5 11 6 5
        </DataArray>
        <DataArray type="Int64" Name="offsets" format="ascii" RangeMin="3" RangeMax="60">
          3 6 9 12 15 18
          21 24 27 30 33 36
          39 42 45 48 51 54
          57 60
        </DataArray>
        <DataArray type="UInt8" Name="types" format="ascii" RangeMin="5" RangeMax="5">
          5 5 5 5 5 5
          5 5 5 5 5 5
          5 5 5 5 5 5
          5 5
        </DataArray>
      </Cells>
    </Piece>
  </UnstructuredGrid>
</VTKFile>
