<VTKFile type="UnstructuredGrid" version="0.1" byte_order="LittleEndian">
  <UnstructuredGrid>
    <Piece NumberOfPoints="1002" NumberOfCells="2000">
      <PointData TCoords="TCoords_">
        <DataArray type="Float32" Name="TCoords_" NumberOfComponents="2" format="ascii" RangeMin="0.44721360216" RangeMax="1.4142135624">
          0.050000000745 0.89999997616 0.10000000149 1 0 1
          0.15000000596 0.89999997616 0.20000000298 1 0.10000000149 0.80000001192
          0.25 0.89999997616 0.30000001192 1 0.20000000298 0.80000001192
          0.15000000596 0.69999998808 0.34999999404 0.89999997616 0.40000000596 1
          0.30000001192 0.80000001192 0.25 0.69999998808 0.20000000298 0.60000002384
          0.44999998808 0.89999997616 0.5 1 0.40000000596 0.80000001192
          0.34999999404 0.69999998808 0.30000001192 0.60000002384 0.25 0.5
          0.55000001192 0.89999997616 0.60000002384 1 0.5 0.80000001192
          0.44999998808 0.69999998808 0.40000000596 0.60000002384 0.34999999404 0.5
          0.30000001192 0.40000000596 0.64999997616 0.89999997616 0.69999998808 1
          0.60000002384 0.80000001192 0.55000001192 0.69999998808 0.5 0.60000002384
          0.44999998808 0.5 0.40000000596 0.40000000596 0.34999999404 0.30000001192
          0.75 0.89999997616 0.80000001192 1 0.69999998808 0.80000001192
          0.64999997616 0.69999998808 0.60000002384 0.60000002384 0.55000001192 0.5
          0.5 0.40000000596 0.44999998808 0.30000001192 0.40000000596 0.20000000298
          0.85000002384 0.89999997616 0.89999997616 1 0.80000001192 0.80000001192
          0.75 0.69999998808 0.69999998808 0.60000002384 0.64999997616 0.5
          0.60000002384 0.40000000596 0.55000001192 0.30000001192 0.5 0.20000000298
          0.44999998808 0.10000000149 0.94999998808 0.89999997616 1 1
          0.89999997616 0.80000001192 0.85000002384 0.69999998808 0.80000001192 0.60000002384
          0.75 0.5 0.69999998808 0.40000000596 0.64999997616 0.30000001192
          0.60000002384 0.20000000298 0.55000001192 0.10000000149 0.5 0
          0.10000000149 1 0.15000000596 0.89999997616 0.20000000298 1
          0.25 0.89999997616 0.30000001192 1 0.20000000298 0.80000001192
          0.34999999404 0.89999997616 0.40000000596 1 0.30000001192 0.80000001192
          0.25 0.69999998808 0.44999998808 0.89999997616 0.5 1
          0.40000000596 0.80000001192 0.34999999404 0.69999998808 0.30000001192 0.60000002384
          0.55000001192 0.89999997616 0.60000002384 1 0.5 0.80000001192
          0.44999998808 0.69999998808 0.40000000596 0.60000002384 0.34999999404 0.5
          0.64999997616 0.89999997616 0.69999998808 1 0.60000002384 0.80000001192
          0.55000001192 0.69999998808 0.5 0.60000002384 0.44999998808 0.5
          0.40000000596 0.40000000596 0.75 0.89999997616 0.80000001192 1
          0.69999998808 0.80000001192 0.64999997616 0.69999998808 0.60000002384 0.60000002384
          0.55000001192 0.5 0.5 0.40000000596 0.44999998808 0.30000001192
          0.85000002384 0.89999997616 0.89999997616 1 0.80000001192 0.80000001192
          0.75 0.69999998808 0.69999998808 0.60000002384 0.64999997616 0.5
          0.60000002384 0.40000000596 0.55000001192 0.30000001192 0.5 0.20000000298
          0.94999998808 0.89999997616 1 1 0.89999997616 0.80000001192
          0.85000002384 0.69999998808 0.80000001192 0.60000002384 0.75 0.5
          0.69999998808 0.40000000596 0.64999997616 0.30000001192 0.60000002384 0.20000000298
          0.55000001192 0.10000000149 0.10000000149 1 0.15000000596 0.89999997616
          0.20000000298 1 0.25 0.89999997616 0.30000001192 1
          0.20000000298 0.80000001192 0.34999999404 0.89999997616 0.40000000596 1
          0.30000001192 0.80000001192 0.25 0.69999998808 0.44999998808 0.89999997616
          0.5 1 0.40000000596 0.80000001192 0.34999999404 0.69999998808
          0.30000001192 0.60000002384 0.55000001192 0.89999997616 0.60000002384 1
          0.5 0.80000001192 0.44999998808 0.69999998808 0.40000000596 0.60000002384
          0.34999999404 0.5 0.64999997616 0.89999997616 0.69999998808 1
          0.60000002384 0.80000001192 0.55000001192 0.69999998808 0.5 0.60000002384
          0.44999998808 0.5 0.40000000596 0.40000000596 0.75 0.89999997616
          0.80000001192 1 0.69999998808 0.80000001192 0.64999997616 0.69999998808
          0.60000002384 0.60000002384 0.55000001192 0.5 0.5 0.40000000596
          0.44999998808 0.30000001192 0.85000002384 0.89999997616 0.89999997616 1
          0.80000001192 0.80000001192 0.75 0.69999998808 0.69999998808 0.60000002384
          0.64999997616 0.5 0.60000002384 0.40000000596 0.55000001192 0.30000001192
          0.5 0.20000000298 0.94999998808 0.89999997616 1 1
          0.89999997616 0.80000001192 0.85000002384 0.69999998808 0.80000001192 0.60000002384
          0.75 0.5 0.69999998808 0.40000000596 0.64999997616 0.30000001192
          0.60000002384 0.20000000298 0.55000001192 0.10000000149 0.10000000149 1
          0.15000000596 0.89999997616 0.20000000298 1 0.25 0.89999997616
          0.30000001192 1 0.20000000298 0.80000001192 0.34999999404 0.89999997616
          0.40000000596 1 0.30000001192 0.80000001192 0.25 0.69999998808
          0.44999998808 0.89999997616 0.5 1 0.40000000596 0.80000001192
          0.34999999404 0.69999998808 0.30000001192 0.60000002384 0.55000001192 0.89999997616
          0.60000002384 1 0.5 0.80000001192 0.44999998808 0.69999998808
          0.40000000596 0.60000002384 0.34999999404 0.5 0.64999997616 0.89999997616
          0.69999998808 1 0.60000002384 0.80000001192 0.55000001192 0.69999998808
          0.5 0.60000002384 0.44999998808 0.5 0.40000000596 0.40000000596
          0.75 0.89999997616 0.80000001192 1 0.69999998808 0.80000001192
          0.64999997616 0.69999998808 0.60000002384 0.60000002384 0.55000001192 0.5
          0.5 0.40000000596 0.44999998808 0.30000001192 0.85000002384 0.89999997616
          0.89999997616 1 0.80000001192 0.80000001192 0.75 0.69999998808
          0.69999998808 0.60000002384 0.64999997616 0.5 0.60000002384 0.40000000596
          0.55000001192 0.30000001192 0.5 0.20000000298 0.94999998808 0.89999997616
          1 1 0.89999997616 0.80000001192 0.85000002384 0.69999998808
          0.80000001192 0.60000002384 0.75 0.5 0.69999998808 0.40000000596
          0.64999997616 0.30000001192 0.60000002384 0.20000000298 0.55000001192 0.10000000149
          0.15000000596 0.89999997616 0.25 0.89999997616 0.20000000298 0.80000001192
          0.34999999404 0.89999997616 0.30000001192 0.80000001192 0.25 0.69999998808
          0.44999998808 0.89999997616 0.40000000596 0.80000001192 0.34999999404 0.69999998808
          0.30000001192 0.60000002384 0.55000001192 0.89999997616 0.5 0.80000001192
          0.44999998808 0.69999998808 0.40000000596 0.60000002384 0.34999999404 0.5
          0.64999997616 0.89999997616 0.60000002384 0.80000001192 0.55000001192 0.69999998808
          0.5 0.60000002384 0.44999998808 0.5 0.40000000596 0.40000000596
          0.75 0.89999997616 0.69999998808 0.80000001192 0.64999997616 0.69999998808
          0.60000002384 0.60000002384 0.55000001192 0.5 0.5 0.40000000596
          0.44999998808 0.30000001192 0.85000002384 0.89999997616 0.80000001192 0.80000001192
          0.75 0.69999998808 0.69999998808 0.60000002384 0.64999997616 0.5
          0.60000002384 0.40000000596 0.55000001192 0.30000001192 0.5 0.20000000298
          0.94999998808 0.89999997616 0.89999997616 0.80000001192 0.85000002384 0.69999998808
          0.80000001192 0.60000002384 0.75 0.5 0.69999998808 0.40000000596
          0.64999997616 0.30000001192 0.60000002384 0.20000000298 0.55000001192 0.10000000149
          0.050000000745 0.89999997616 0.15000000596 0.89999997616 0.10000000149 0.80000001192
          0.25 0.89999997616 0.20000000298 0.80000001192 0.15000000596 0.69999998808
          0.34999999404 0.89999997616 0.30000001192 0.80000001192 0.25 0.69999998808
          0.20000000298 0.60000002384 0.44999998808 0.89999997616 0.40000000596 0.80000001192
          0.34999999404 0.69999998808 0.30000001192 0.60000002384 0.25 0.5
          0.55000001192 0.89999997616 0.5 0.80000001192 0.44999998808 0.69999998808
          0.40000000596 0.60000002384 0.34999999404 0.5 0.30000001192 0.40000000596
          0.64999997616 0.89999997616 0.60000002384 0.80000001192 0.55000001192 0.69999998808
          0.5 0.60000002384 0.44999998808 0.5 0.40000000596 0.40000000596
          0.34999999404 0.30000001192 0.75 0.89999997616 0.69999998808 0.80000001192
          0.64999997616 0.69999998808 0.60000002384 0.60000002384 0.55000001192 0.5
          0.5 0.40000000596 0.44999998808 0.30000001192 0.40000000596 0.20000000298
          0.85000002384 0.89999997616 0.80000001192 0.80000001192 0.75 0.69999998808
          0.69999998808 0.60000002384 0.64999997616 0.5 0.60000002384 0.40000000596
          0.55000001192 0.30000001192 0.5 0.20000000298 0.44999998808 0.10000000149
          0.94999998808 0.89999997616 0.89999997616 0.80000001192 0.85000002384 0.69999998808
          0.80000001192 0.60000002384 0.75 0.5 0.69999998808 0.40000000596
          0.64999997616 0.30000001192 0.60000002384 0.20000000298 0.55000001192 0.10000000149
          0.5 0 0.050000000745 0.89999997616 0.15000000596 0.89999997616
          0.10000000149 0.80000001192 0.25 0.89999997616 0.20000000298 0.80000001192
          0.15000000596 0.69999998808 0.34999999404 0.89999997616 0.30000001192 0.80000001192
          0.25 0.69999998808 0.20000000298 0.60000002384 0.44999998808 0.89999997616
          0.40000000596 0.80000001192 0.34999999404 0.69999998808 0.30000001192 0.60000002384
          0.25 0.5 0.55000001192 0.89999997616 0.5 0.80000001192
          0.44999998808 0.69999998808 0.40000000596 0.60000002384 0.34999999404 0.5
          0.30000001192 0.40000000596 0.64999997616 0.89999997616 0.60000002384 0.80000001192
          0.55000001192 0.69999998808 0.5 0.60000002384 0.44999998808 0.5
          0.40000000596 0.40000000596 0.34999999404 0.30000001192 0.75 0.89999997616
          0.69999998808 0.80000001192 0.64999997616 0.69999998808 0.60000002384 0.60000002384
          0.55000001192 0.5 0.5 0.40000000596 0.44999998808 0.30000001192
          0.40000000596 0.20000000298 0.85000002384 0.89999997616 0.80000001192 0.80000001192
          0.75 0.69999998808 0.69999998808 0.60000002384 0.64999997616 0.5
          0.60000002384 0.40000000596 0.55000001192 0.30000001192 0.5 0.20000000298
          0.44999998808 0.10000000149 0.94999998808 0.89999997616 0.89999997616 0.80000001192
          0.85000002384 0.69999998808 0.80000001192 0.60000002384 0.75 0.5
          0.69999998808 0.40000000596 0.64999997616 0.30000001192 0.60000002384 0.20000000298
          0.55000001192 0.10000000149 0.5 0 0.15000000596 0.89999997616
          0.25 0.89999997616 0.20000000298 0.80000001192 0.34999999404 0.89999997616
          0.30000001192 0.80000001192 0.25 0.69999998808 0.44999998808 0.89999997616
          0.40000000596 0.80000001192 0.34999999404 0.69999998808 0.30000001192 0.60000002384
          0.55000001192 0.89999997616 0.5 0.80000001192 0.44999998808 0.69999998808
          0.40000000596 0.60000002384 0.34999999404 0.5 0.64999997616 0.89999997616
          0.60000002384 0.80000001192 0.55000001192 0.69999998808 0.5 0.60000002384
          0.44999998808 0.5 0.40000000596 0.40000000596 0.75 0.89999997616
          0.69999998808 0.80000001192 0.64999997616 0.69999998808 0.60000002384 0.60000002384
          0.55000001192 0.5 0.5 0.40000000596 0.44999998808 0.30000001192
          0.85000002384 0.89999997616 0.80000001192 0.80000001192 0.75 0.69999998808
          0.69999998808 0.60000002384 0.64999997616 0.5 0.60000002384 0.40000000596
          0.55000001192 0.30000001192 0.5 0.20000000298 0.94999998808 0.89999997616
          0.89999997616 0.80000001192 0.85000002384 0.69999998808 0.80000001192 0.60000002384
          0.75 0.5 0.69999998808 0.40000000596 0.64999997616 0.30000001192
          0.60000002384 0.20000000298 0.55000001192 0.10000000149 0.050000000745 0.89999997616
          0.10000000149 1 0 1 0.15000000596 0.89999997616
          0.20000000298 1 0.10000000149 0.80000001192 0.25 0.89999997616
          0.30000001192 1 0.20000000298 0.80000001192 0.15000000596 0.69999998808
          0.34999999404 0.89999997616 0.40000000596 1 0.30000001192 0.80000001192
          0.25 0.69999998808 0.20000000298 0.60000002384 0.44999998808 0.89999997616
          0.5 1 0.40000000596 0.80000001192 0.34999999404 0.69999998808
          0.30000001192 0.60000002384 0.25 0.5 0.55000001192 0.89999997616
          0.60000002384 1 0.5 0.80000001192 0.44999998808 0.69999998808
          0.40000000596 0.60000002384 0.34999999404 0.5 0.30000001192 0.40000000596
          0.64999997616 0.89999997616 0.69999998808 1 0.60000002384 0.80000001192
          0.55000001192 0.69999998808 0.5 0.60000002384 0.44999998808 0.5
          0.40000000596 0.40000000596 0.34999999404 0.30000001192 0.75 0.89999997616
          0.80000001192 1 0.69999998808 0.80000001192 0.64999997616 0.69999998808
          0.60000002384 0.60000002384 0.55000001192 0.5 0.5 0.40000000596
          0.44999998808 0.30000001192 0.40000000596 0.20000000298 0.85000002384 0.89999997616
          0.89999997616 1 0.80000001192 0.80000001192 0.75 0.69999998808
          0.69999998808 0.60000002384 0.64999997616 0.5 0.60000002384 0.40000000596
          0.55000001192 0.30000001192 0.5 0.20000000298 0.44999998808 0.10000000149
          0.94999998808 0.89999997616 1 1 0.89999997616 0.80000001192
          0.85000002384 0.69999998808 0.80000001192 0.60000002384 0.75 0.5
          0.69999998808 0.40000000596 0.64999997616 0.30000001192 0.60000002384 0.20000000298
          0.55000001192 0.10000000149 0.5 0 0.050000000745 0.89999997616
          0.10000000149 1 0.15000000596 0.89999997616 0.20000000298 1
          0.10000000149 0.80000001192 0.25 0.89999997616 0.30000001192 1
          0.20000000298 0.80000001192 0.15000000596 0.69999998808 0.34999999404 0.89999997616
          0.40000000596 1 0.30000001192 0.80000001192 0.25 0.69999998808
          0.20000000298 0.60000002384 0.44999998808 0.89999997616 0.5 1
          0.40000000596 0.80000001192 0.34999999404 0.69999998808 0.30000001192 0.60000002384
          0.25 0.5 0.55000001192 0.89999997616 0.60000002384 1
          0.5 0.80000001192 0.44999998808 0.69999998808 0.40000000596 0.60000002384
          0.34999999404 0.5 0.30000001192 0.40000000596 0.64999997616 0.89999997616
          0.69999998808 1 0.60000002384 0.80000001192 0.55000001192 0.69999998808
          0.5 0.60000002384 0.44999998808 0.5 0.40000000596 0.40000000596
          0.34999999404 0.30000001192 0.75 0.89999997616 0.80000001192 1
          0.69999998808 0.80000001192 0.64999997616 0.69999998808 0.60000002384 0.60000002384
          0.55000001192 0.5 0.5 0.40000000596 0.44999998808 0.30000001192
          0.40000000596 0.20000000298 0.85000002384 0.89999997616 0.89999997616 1
          0.80000001192 0.80000001192 0.75 0.69999998808 0.69999998808 0.60000002384
          0.64999997616 0.5 0.60000002384 0.40000000596 0.55000001192 0.30000001192
          0.5 0.20000000298 0.44999998808 0.10000000149 0.15000000596 0.89999997616
          0.25 0.89999997616 0.20000000298 0.80000001192 0.34999999404 0.89999997616
          0.30000001192 0.80000001192 0.25 0.69999998808 0.44999998808 0.89999997616
          0.40000000596 0.80000001192 0.34999999404 0.69999998808 0.30000001192 0.60000002384
          0.55000001192 0.89999997616 0.5 0.80000001192 0.44999998808 0.69999998808
          0.40000000596 0.60000002384 0.34999999404 0.5 0.64999997616 0.89999997616
          0.60000002384 0.80000001192 0.55000001192 0.69999998808 0.5 0.60000002384
          0.44999998808 0.5 0.40000000596 0.40000000596 0.75 0.89999997616
          0.69999998808 0.80000001192 0.64999997616 0.69999998808 0.60000002384 0.60000002384
          0.55000001192 0.5 0.5 0.40000000596 0.44999998808 0.30000001192
          0.85000002384 0.89999997616 0.80000001192 0.80000001192 0.75 0.69999998808
          0.69999998808 0.60000002384 0.64999997616 0.5 0.60000002384 0.40000000596
          0.55000001192 0.30000001192 0.5 0.20000000298 0.94999998808 0.89999997616
          0.89999997616 0.80000001192 0.85000002384 0.69999998808 0.80000001192 0.60000002384
          0.75 0.5 0.69999998808 0.40000000596 0.64999997616 0.30000001192
          0.60000002384 0.20000000298 0.55000001192 0.10000000149 0.10000000149 1
          0.15000000596 0.89999997616 0.20000000298 1 0.25 0.89999997616
          0.30000001192 1 0.20000000298 0.80000001192 0.34999999404 0.89999997616
          0.40000000596 1 0.30000001192 0.80000001192 0.25 0.69999998808
          0.44999998808 0.89999997616 0.5 1 0.40000000596 0.80000001192
          0.34999999404 0.69999998808 0.30000001192 0.60000002384 0.55000001192 0.89999997616
          0.60000002384 1 0.5 0.80000001192 0.44999998808 0.69999998808
          0.40000000596 0.60000002384 0.34999999404 0.5 0.64999997616 0.89999997616
          0.69999998808 1 0.60000002384 0.80000001192 0.55000001192 0.69999998808
          0.5 0.60000002384 0.44999998808 0.5 0.40000000596 0.40000000596
          0.75 0.89999997616 0.80000001192 1 0.69999998808 0.80000001192
          0.64999997616 0.69999998808 0.60000002384 0.60000002384 0.55000001192 0.5
          0.5 0.40000000596 0.44999998808 0.30000001192 0.85000002384 0.89999997616
          0.89999997616 1 0.80000001192 0.80000001192 0.75 0.69999998808
          0.69999998808 0.60000002384 0.64999997616 0.5 0.60000002384 0.40000000596
          0.55000001192 0.30000001192 0.5 0.20000000298 0.94999998808 0.89999997616
          1 1 0.89999997616 0.80000001192 0.85000002384 0.69999998808
          0.80000001192 0.60000002384 0.75 0.5 0.69999998808 0.40000000596
          0.64999997616 0.30000001192 0.60000002384 0.20000000298 0.55000001192 0.10000000149
          0.10000000149 1 0.15000000596 0.89999997616 0.20000000298 1
          0.25 0.89999997616 0.30000001192 1 0.20000000298 0.80000001192
          0.34999999404 0.89999997616 0.40000000596 1 0.30000001192 0.80000001192
          0.25 0.69999998808 0.44999998808 0.89999997616 0.5 1
          0.40000000596 0.80000001192 0.34999999404 0.69999998808 0.30000001192 0.60000002384
          0.55000001192 0.89999997616 0.60000002384 1 0.5 0.80000001192
          0.44999998808 0.69999998808 0.40000000596 0.60000002384 0.34999999404 0.5
          0.64999997616 0.89999997616 0.69999998808 1 0.60000002384 0.80000001192
          0.55000001192 0.69999998808 0.5 0.60000002384 0.44999998808 0.5
          0.40000000596 0.40000000596 0.75 0.89999997616 0.80000001192 1
          0.69999998808 0.80000001192 0.64999997616 0.69999998808 0.60000002384 0.60000002384
          0.55000001192 0.5 0.5 0.40000000596 0.44999998808 0.30000001192
          0.85000002384 0.89999997616 0.89999997616 1 0.80000001192 0.80000001192
          0.75 0.69999998808 0.69999998808 0.60000002384 0.64999997616 0.5
          0.60000002384 0.40000000596 0.55000001192 0.30000001192 0.5 0.20000000298
          0.10000000149 1 0.15000000596 0.89999997616 0.20000000298 1
          0.25 0.89999997616 0.30000001192 1 0.20000000298 0.80000001192
          0.34999999404 0.89999997616 0.40000000596 1 0.30000001192 0.80000001192
          0.25 0.69999998808 0.44999998808 0.89999997616 0.5 1
          0.40000000596 0.80000001192 0.34999999404 0.69999998808 0.30000001192 0.60000002384
          0.55000001192 0.89999997616 0.60000002384 1 0.5 0.80000001192
          0.44999998808 0.69999998808 0.40000000596 0.60000002384 0.34999999404 0.5
          0.64999997616 0.89999997616 0.69999998808 1 0.60000002384 0.80000001192
          0.55000001192 0.69999998808 0.5 0.60000002384 0.44999998808 0.5
          0.40000000596 0.40000000596 0.75 0.89999997616 0.80000001192 1
          0.69999998808 0.80000001192 0.64999997616 0.69999998808 0.60000002384 0.60000002384
          0.55000001192 0.5 0.5 0.40000000596 0.44999998808 0.30000001192
          0.85000002384 0.89999997616 0.89999997616 1 0.80000001192 0.80000001192
          0.75 0.69999998808 0.69999998808 0.60000002384 0.64999997616 0.5
          0.60000002384 0.40000000596 0.55000001192 0.30000001192 0.5 0.20000000298
          0.94999998808 0.89999997616 0.89999997616 0.80000001192 0.85000002384 0.69999998808
          0.80000001192 0.60000002384 0.75 0.5 0.69999998808 0.40000000596
          0.64999997616 0.30000001192 0.60000002384 0.20000000298 0.55000001192 0.10000000149
          0.15000000596 0.89999997616 0.25 0.89999997616 0.20000000298 0.80000001192
          0.34999999404 0.89999997616 0.30000001192 0.80000001192 0.25 0.69999998808
          0.44999998808 0.89999997616 0.40000000596 0.80000001192 0.34999999404 0.69999998808
          0.30000001192 0.60000002384 0.55000001192 0.89999997616 0.5 0.80000001192
          0.44999998808 0.69999998808 0.40000000596 0.60000002384 0.34999999404 0.5
          0.64999997616 0.89999997616 0.60000002384 0.80000001192 0.55000001192 0.69999998808
          0.5 0.60000002384 0.44999998808 0.5 0.40000000596 0.40000000596
          0.75 0.89999997616 0.69999998808 0.80000001192 0.64999997616 0.69999998808
          0.60000002384 0.60000002384 0.55000001192 0.5 0.5 0.40000000596
          0.44999998808 0.30000001192 0.85000002384 0.89999997616 0.80000001192 0.80000001192
          0.75 0.69999998808 0.69999998808 0.60000002384 0.64999997616 0.5
          0.60000002384 0.40000000596 0.55000001192 0.30000001192 0.5 0.20000000298
          0.94999998808 0.89999997616 0.89999997616 0.80000001192 0.85000002384 0.69999998808
          0.80000001192 0.60000002384 0.75 0.5 0.69999998808 0.40000000596
          0.64999997616 0.30000001192 0.60000002384 0.20000000298 0.55000001192 0.10000000149
          0.10000000149 1 0.15000000596 0.89999997616 0.20000000298 1
          0.25 0.89999997616 0.30000001192 1 0.20000000298 0.80000001192
          0.34999999404 0.89999997616 0.40000000596 1 0.30000001192 0.80000001192
          0.25 0.69999998808 0.44999998808 0.89999997616 0.5 1
          0.40000000596 0.80000001192 0.34999999404 0.69999998808 0.30000001192 0.60000002384
          0.55000001192 0.89999997616 0.60000002384 1 0.5 0.80000001192
          0.44999998808 0.69999998808 0.40000000596 0.60000002384 0.34999999404 0.5
          0.64999997616 0.89999997616 0.69999998808 1 0.60000002384 0.80000001192
          0.55000001192 0.69999998808 0.5 0.60000002384 0.44999998808 0.5
          0.40000000596 0.40000000596 0.75 0.89999997616 0.80000001192 1
          0.69999998808 0.80000001192 0.64999997616 0.69999998808 0.60000002384 0.60000002384
          0.55000001192 0.5 0.5 0.40000000596 0.44999998808 0.30000001192
          0.85000002384 0.89999997616 0.89999997616 1 0.80000001192 0.80000001192
          0.75 0.69999998808 0.69999998808 0.60000002384 0.64999997616 0.5
          0.60000002384 0.40000000596 0.55000001192 0.30000001192 0.5 0.20000000298
          0.050000000745 0.89999997616 0.15000000596 0.89999997616 0.10000000149 0.80000001192
          0.25 0.89999997616 0.20000000298 0.80000001192 0.15000000596 0.69999998808
          0.34999999404 0.89999997616 0.30000001192 0.80000001192 0.25 0.69999998808
          0.20000000298 0.60000002384 0.44999998808 0.89999997616 0.40000000596 0.80000001192
          0.34999999404 0.69999998808 0.30000001192 0.60000002384 0.25 0.5
          0.55000001192 0.89999997616 0.5 0.80000001192 0.44999998808 0.69999998808
          0.40000000596 0.60000002384 0.34999999404 0.5 0.30000001192 0.40000000596
          0.64999997616 0.89999997616 0.60000002384 0.80000001192 0.55000001192 0.69999998808
          0.5 0.60000002384 0.44999998808 0.5 0.40000000596 0.40000000596
          0.34999999404 0.30000001192 0.75 0.89999997616 0.69999998808 0.80000001192
          0.64999997616 0.69999998808 0.60000002384 0.60000002384 0.55000001192 0.5
          0.5 0.40000000596 0.44999998808 0.30000001192 0.40000000596 0.20000000298
          0.85000002384 0.89999997616 0.80000001192 0.80000001192 0.75 0.69999998808
          0.69999998808 0.60000002384 0.64999997616 0.5 0.60000002384 0.40000000596
          0.55000001192 0.30000001192 0.5 0.20000000298 0.44999998808 0.10000000149
          0.15000000596 0.89999997616 0.25 0.89999997616 0.20000000298 0.80000001192
          0.34999999404 0.89999997616 0.30000001192 0.80000001192 0.25 0.69999998808
          0.44999998808 0.89999997616 0.40000000596 0.80000001192 0.34999999404 0.69999998808
          0.30000001192 0.60000002384 0.55000001192 0.89999997616 0.5 0.80000001192
          0.44999998808 0.69999998808 0.40000000596 0.60000002384 0.34999999404 0.5
          0.64999997616 0.89999997616 0.60000002384 0.80000001192 0.55000001192 0.69999998808
          0.5 0.60000002384 0.44999998808 0.5 0.40000000596 0.40000000596
          0.75 0.89999997616 0.69999998808 0.80000001192 0.64999997616 0.69999998808
          0.60000002384 0.60000002384 0.55000001192 0.5 0.5 0.40000000596
          0.44999998808 0.30000001192 0.85000002384 0.89999997616 0.80000001192 0.80000001192
          0.75 0.69999998808 0.69999998808 0.60000002384 0.64999997616 0.5
          0.60000002384 0.40000000596 0.55000001192 0.30000001192 0.5 0.20000000298
          0.10000000149 1 0.15000000596 0.89999997616 0.20000000298 1
          0.25 0.89999997616 0.30000001192 1 0.20000000298 0.80000001192
          0.34999999404 0.89999997616 0.40000000596 1 0.30000001192 0.80000001192
          0.25 0.69999998808 0.44999998808 0.89999997616 0.5 1
          0.40000000596 0.80000001192 0.34999999404 0.69999998808 0.30000001192 0.60000002384
          0.55000001192 0.89999997616 0.60000002384 1 0.5 0.80000001192
          0.44999998808 0.69999998808 0.40000000596 0.60000002384 0.34999999404 0.5
          0.64999997616 0.89999997616 0.69999998808 1 0.60000002384 0.80000001192
          0.55000001192 0.69999998808 0.5 0.60000002384 0.44999998808 0.5
          0.40000000596 0.40000000596 0.75 0.89999997616 0.80000001192 1
          0.69999998808 0.80000001192 0.64999997616 0.69999998808 0.60000002384 0.60000002384
          0.55000001192 0.5 0.5 0.40000000596 0.44999998808 0.30000001192
          0.85000002384 0.89999997616 0.89999997616 1 0.80000001192 0.80000001192
          0.75 0.69999998808 0.69999998808 0.60000002384 0.64999997616 0.5
          0.60000002384 0.40000000596 0.55000001192 0.30000001192 0.5 0.20000000298
          0.15000000596 0.89999997616 0.25 0.89999997616 0.20000000298 0.80000001192
          0.34999999404 0.89999997616 0.30000001192 0.80000001192 0.25 0.69999998808
          0.44999998808 0.89999997616 0.40000000596 0.80000001192 0.34999999404 0.69999998808
          0.30000001192 0.60000002384 0.55000001192 0.89999997616 0.5 0.80000001192
          0.44999998808 0.69999998808 0.40000000596 0.60000002384 0.34999999404 0.5
          0.64999997616 0.89999997616 0.60000002384 0.80000001192 0.55000001192 0.69999998808
          0.5 0.60000002384 0.44999998808 0.5 0.40000000596 0.40000000596
          0.75 0.89999997616 0.69999998808 0.80000001192 0.64999997616 0.69999998808
          0.60000002384 0.60000002384 0.55000001192 0.5 0.5 0.40000000596
          0.44999998808 0.30000001192 0.85000002384 0.89999997616 0.80000001192 0.80000001192
          0.75 0.69999998808 0.69999998808 0.60000002384 0.64999997616 0.5
          0.60000002384 0.40000000596 0.55000001192 0.30000001192 0.5 0.20000000298
        </DataArray>
      </PointData>
      <CellData>
      </CellData>
      <Points>
        <DataArray type="Float32" Name="Points" NumberOfComponents="3" format="ascii" RangeMin="0.99999937332" RangeMax="1.0000006139">
          -0.4986140132 0.86217600107 0.089642003179 -0.44321298599 0.89641702175 0
          -0.52573102713 0.85065102577 0 -0.40838500857 0.90791600943 0.094397000968
          -0.34768500924 0.93761098385 0 -0.46358001232 0.86598402262 0.18752199411
          -0.30440101027 0.94743698835 0.098506003618 -0.23998899758 0.97077602148 0
          -0.36528098583 0.9098110199 0.19701300561 -0.41998100281 0.85953497887 0.29123300314
          -0.18830999732 0.97684401274 0.10156399757 -0.12267299742 0.99244701862 0
          -0.25308200717 0.94553101063 0.2047470063 -0.31384900212 0.89925599098 0.30469098687
          -0.36801999807 0.84081500769 0.39697900414 -0.063782997429 0.99261301756 0.10320299864
          0 1 0 -0.12969399989 0.9690939784 0.20984999835
          -0.19454100728 0.92901599407 0.31477499008 -0.255133003 0.87435299158 0.41281300783
          -0.30901700258 0.80901700258 0.5 0.063782997429 0.99261301756 0.10320299864
          0.12267299742 0.99244701862 0 0 0.97734802961 0.21163700521
          -0.065966002643 0.94504797459 0.32020699978 -0.13079899549 0.896510005 0.4232749939
          -0.19134899974 0.83493202925 0.51601701975 -0.24534599483 0.76499801874 0.59546798468
          0.18830999732 0.97684401274 0.10156399757 0.23998899758 0.97077602148 0
          0.12969399989 0.9690939784 0.20984999835 0.065966002643 0.94504797459 0.32020699978
          0 0.90427899361 0.42694199085 -0.064846999943 0.84886002541 0.52462500334
          -0.12554000318 0.78287398815 0.60938298702 -0.17999200523 0.71121299267 0.67954301834
          0.30440101027 0.94743698835 0.098506003618 0.34768500924 0.93761098385 0
          0.25308200717 0.94553101063 0.2047470063 0.19454100728 0.92901599407 0.31477499008
          0.13079899549 0.896510005 0.4232749939 0.064846999943 0.84886002541 0.52462500334
          0 0.78911799192 0.61424201727 -0.060880001634 0.72167998552 0.68954402208
          -0.11589500308 0.65110301971 0.75008898973 0.40838500857 0.90791600943 0.094397000968
          0.44321298599 0.89641702175 0 0.36528098583 0.9098110199 0.19701300561
          0.31384900212 0.89925599098 0.30469098687 0.255133003 0.87435299158 0.41281300783
          0.19134899974 0.83493202925 0.51601701975 0.12554000318 0.78287398815 0.60938298702