<VTKFile type="UnstructuredGrid" version="0.1" byte_order="LittleEndian">
  <UnstructuredGrid>
    <Piece NumberOfPoints="1962" NumberOfCells="3920">
      <PointData TCoords="TCoords_">
        <DataArray type="Float32" Name="TCoords_" NumberOfComponents="2" format="ascii" RangeMin="0.44749871566" RangeMax="1.4142135624">
          0.035714000463 0.92857098579 0.071428999305 1 0 1
          0.10714299977 0.92857098579 0.14285700023 1 0.071428999305 0.85714298487
          0.1785710007 0.92857098579 0.21428599954 1 0.14285700023 0.85714298487
          0.10714299977 0.78571397066 0.25 0.92857098579 0.28571400046 1
          0.21428599954 0.85714298487 0.1785710007 0.78571397066 0.14285700023 0.71428602934
          0.32142901421 0.92857098579 0.35714301467 1 0.28571400046 0.85714298487
          0.25 0.78571397066 0.21428599954 0.71428602934 0.1785710007 0.64285701513
          0.39285698533 0.92857098579 0.42857098579 1 0.35714301467 0.85714298487
          0.32142901421 0.78571397066 0.28571400046 0.71428602934 0.25 0.64285701513
          0.21428599954 0.57142901421 0.46428599954 0.92857098579 0.5 1
          0.42857098579 0.85714298487 0.39285698533 0.78571397066 0.35714301467 0.71428602934
          0.32142901421 0.64285701513 0.28571400046 0.57142901421 0.25 0.5
          0.53571397066 0.92857098579 0.57142901421 1 0.5 0.85714298487
          0.46428599954 0.78571397066 0.42857098579 0.71428602934 0.39285698533 0.64285701513
          0.35714301467 0.57142901421 0.32142901421 0.5 0.28571400046 0.42857098579
          0.60714298487 0.92857098579 0.64285701513 1 0.57142901421 0.85714298487
          0.53571397066 0.78571397066 0.5 0.71428602934 0.46428599954 0.64285701513
          0.42857098579 0.57142901421 0.39285698533 0.5 0.35714301467 0.42857098579
          0.32142901421 0.35714301467 0.67857098579 0.92857098579 0.71428602934 1
          0.64285701513 0.85714298487 0.60714298487 0.78571397066 0.57142901421 0.71428602934
          0.53571397066 0.64285701513 0.5 0.57142901421 0.46428599954 0.5
          0.42857098579 0.42857098579 0.39285698533 0.35714301467 0.35714301467 0.28571400046
          0.75 0.92857098579 0.78571397066 1 0.71428602934 0.85714298487
          0.67857098579 0.78571397066 0.64285701513 0.71428602934 0.60714298487 0.64285701513
          0.57142901421 0.57142901421 0.53571397066 0.5 0.5 0.42857098579
          0.46428599954 0.35714301467 0.42857098579 0.28571400046 0.39285698533 0.21428599954
          0.82142901421 0.92857098579 0.85714298487 1 0.78571397066 0.85714298487
          0.75 0.78571397066 0.71428602934 0.71428602934 0.67857098579 0.64285701513
          0.64285701513 0.57142901421 0.60714298487 0.5 0.57142901421 0.42857098579
          0.53571397066 0.35714301467 0.5 0.28571400046 0.46428599954 0.21428599954
          0.42857098579 0.14285700023 0.89285701513 0.92857098579 0.92857098579 1
          0.85714298487 0.85714298487 0.82142901421 0.78571397066 0.78571397066 0.71428602934
          0.75 0.64285701513 0.71428602934 0.57142901421 0.67857098579 0.5
          0.64285701513 0.42857098579 0.60714298487 0.35714301467 0.57142901421 0.28571400046
          0.53571397066 0.21428599954 0.5 0.14285700023 0.46428599954 0.071428999305
          0.96428602934 0.92857098579 1 1 0.92857098579 0.85714298487
          0.89285701513 0.78571397066 0.85714298487 0.71428602934 0.82142901421 0.64285701513
          0.78571397066 0.57142901421 0.75 0.5 0.71428602934 0.42857098579
          0.67857098579 0.35714301467 0.64285701513 0.28571400046 0.60714298487 0.21428599954
          0.57142901421 0.14285700023 0.53571397066 0.071428999305 0.5 0
          0.071428999305 1 0.10714299977 0.92857098579 0.14285700023 1
          0.1785710007 0.92857098579 0.21428599954 1 0.14285700023 0.85714298487
          0.25 0.92857098579 0.28571400046 1 0.21428599954 0.85714298487
          0.1785710007 0.78571397066 0.32142901421 0.92857098579 0.35714301467 1
          0.28571400046 0.85714298487 0.25 0.78571397066 0.21428599954 0.71428602934
          0.39285698533 0.92857098579 0.42857098579 1 0.35714301467 0.85714298487
          0.32142901421 0.78571397066 0.28571400046 0.71428602934 0.25 0.64285701513
          0.46428599954 0.92857098579 0.5 1 0.42857098579 0.85714298487
          0.39285698533 0.78571397066 0.35714301467 0.71428602934 0.32142901421 0.64285701513
          0.28571400046 0.57142901421 0.53571397066 0.92857098579 0.57142901421 1
          0.5 0.85714298487 0.46428599954 0.78571397066 0.42857098579 0.71428602934
          0.39285698533 0.64285701513 0.35714301467 0.57142901421 0.32142901421 0.5
          0.60714298487 0.92857098579 0.64285701513 1 0.57142901421 0.85714298487
          0.53571397066 0.78571397066 0.5 0.71428602934 0.46428599954 0.64285701513
          0.42857098579 0.57142901421 0.39285698533 0.5 0.35714301467 0.42857098579
          0.67857098579 0.92857098579 0.71428602934 1 0.64285701513 0.85714298487
          0.60714298487 0.78571397066 0.57142901421 0.71428602934 0.53571397066 0.64285701513
          0.5 0.57142901421 0.46428599954 0.5 0.42857098579 0.42857098579
          0.39285698533 0.35714301467 0.75 0.92857098579 0.78571397066 1
          0.71428602934 0.85714298487 0.67857098579 0.78571397066 0.64285701513 0.71428602934
          0.60714298487 0.64285701513 0.57142901421 0.57142901421 0.53571397066 0.5
          0.5 0.42857098579 0.46428599954 0.35714301467 0.42857098579 0.28571400046
          0.82142901421 0.92857098579 0.85714298487 1 0.78571397066 0.85714298487
          0.75 0.78571397066 0.71428602934 0.71428602934 0.67857098579 0.64285701513
          0.64285701513 0.57142901421 0.60714298487 0.5 0.57142901421 0.42857098579
          0.53571397066 0.35714301467 0.5 0.28571400046 0.46428599954 0.21428599954
          0.89285701513 0.92857098579 0.92857098579 1 0.85714298487 0.85714298487
          0.82142901421 0.78571397066 0.78571397066 0.71428602934 0.75 0.64285701513
          0.71428602934 0.57142901421 0.67857098579 0.5 0.64285701513 0.42857098579
          0.60714298487 0.35714301467 0.57142901421 0.28571400046 0.53571397066 0.21428599954
          0.5 0.14285700023 0.96428602934 0.92857098579 1 1
          0.92857098579 0.85714298487 0.89285701513 0.78571397066 0.85714298487 0.71428602934
          0.82142901421 0.64285701513 0.78571397066 0.57142901421 0.75 0.5
          0.71428602934 0.42857098579 0.67857098579 0.35714301467 0.64285701513 0.28571400046
          0.60714298487 0.21428599954 0.57142901421 0.14285700023 0.53571397066 0.071428999305
          0.071428999305 1 0.10714299977 0.92857098579 0.14285700023 1
          0.1785710007 0.92857098579 0.21428599954 1 0.14285700023 0.85714298487
          0.25 0.92857098579 0.28571400046 1 0.21428599954 0.85714298487
          0.1785710007 0.78571397066 0.32142901421 0.92857098579 0.35714301467 1
          0.28571400046 0.85714298487 0.25 0.78571397066 0.21428599954 0.71428602934
          0.39285698533 0.92857098579 0.42857098579 1 0.35714301467 0.85714298487
          0.32142901421 0.78571397066 0.28571400046 0.71428602934 0.25 0.64285701513
          0.46428599954 0.92857098579 0.5 1 0.42857098579 0.85714298487
          0.39285698533 0.78571397066 0.35714301467 0.71428602934 0.32142901421 0.64285701513
          0.28571400046 0.57142901421 0.53571397066 0.92857098579 0.57142901421 1
          0.5 0.85714298487 0.46428599954 0.78571397066 0.42857098579 0.71428602934
          0.39285698533 0.64285701513 0.35714301467 0.57142901421 0.32142901421 0.5
          0.60714298487 0.92857098579 0.64285701513 1 0.57142901421 0.85714298487
          0.53571397066 0.78571397066 0.5 0.71428602934 0.46428599954 0.64285701513
          0.42857098579 0.57142901421 0.39285698533 0.5 0.35714301467 0.42857098579
          0.67857098579 0.92857098579 0.71428602934 1 0.64285701513 0.85714298487
          0.60714298487 0.78571397066 0.57142901421 0.71428602934 0.53571397066 0.64285701513
          0.5 0.57142901421 0.46428599954 0.5 0.42857098579 0.42857098579
          0.39285698533 0.35714301467 0.75 0.92857098579 0.78571397066 1
          0.71428602934 0.85714298487 0.67857098579 0.78571397066 0.64285701513 0.71428602934
          0.60714298487 0.64285701513 0.57142901421 0.57142901421 0.53571397066 0.5
          0.5 0.42857098579 0.46428599954 0.35714301467 0.42857098579 0.28571400046
          0.82142901421 0.92857098579 0.85714298487 1 0.78571397066 0.85714298487
          0.75 0.78571397066 0.71428602934 0.71428602934 0.67857098579 0.64285701513
          0.64285701513 0.57142901421 0.60714298487 0.5 0.57142901421 0.42857098579
          0.53571397066 0.35714301467 0.5 0.28571400046 0.46428599954 0.21428599954
          0.89285701513 0.92857098579 0.92857098579 1 0.85714298487 0.85714298487
          0.82142901421 0.78571397066 0.78571397066 0.71428602934 0.75 0.64285701513
          0.71428602934 0.57142901421 0.67857098579 0.5 0.64285701513 0.42857098579
          0.60714298487 0.35714301467 0.57142901421 0.28571400046 0.53571397066 0.21428599954
          0.5 0.14285700023 0.96428602934 0.92857098579 1 1
          0.92857098579 0.85714298487 0.89285701513 0.78571397066 0.85714298487 0.71428602934
          0.82142901421 0.64285701513 0.78571397066 0.57142901421 0.75 0.5
          0.71428602934 0.42857098579 0.67857098579 0.35714301467 0.64285701513 0.28571400046
          0.60714298487 0.21428599954 0.57142901421 0.14285700023 0.53571397066 0.071428999305
          0.071428999305 1 0.10714299977 0.92857098579 0.14285700023 1
          0.1785710007 0.92857098579 0.21428599954 1 0.14285700023 0.85714298487
          0.25 0.92857098579 0.28571400046 1 0.21428599954 0.85714298487
          0.1785710007 0.78571397066 0.32142901421 0.92857098579 0.35714301467 1
          0.28571400046 0.85714298487 0.25 0.78571397066 0.21428599954 0.71428602934
          0.39285698533 0.92857098579 0.42857098579 1 0.35714301467 0.85714298487
          0.32142901421 0.78571397066 0.28571400046 0.71428602934 0.25 0.64285701513
          0.46428599954 0.92857098579 0.5 1 0.42857098579 0.85714298487
          0.39285698533 0.78571397066 0.35714301467 0.71428602934 0.32142901421 0.64285701513
          0.28571400046 0.57142901421 0.53571397066 0.92857098579 0.57142901421 1
          0.5 0.85714298487 0.46428599954 0.78571397066 0.42857098579 0.71428602934
          0.39285698533 0.64285701513 0.35714301467 0.57142901421 0.32142901421 0.5
          0.60714298487 0.92857098579 0.64285701513 1 0.57142901421 0.85714298487
          0.53571397066 0.78571397066 0.5 0.71428602934 0.46428599954 0.64285701513
          0.42857098579 0.57142901421 0.39285698533 0.5 0.35714301467 0.42857098579
          0.67857098579 0.92857098579 0.71428602934 1 0.64285701513 0.85714298487
          0.60714298487 0.78571397066 0.57142901421 0.71428602934 0.53571397066 0.64285701513
          0.5 0.57142901421 0.46428599954 0.5 0.42857098579 0.42857098579
          0.39285698533 0.35714301467 0.75 0.92857098579 0.78571397066 1
          0.71428602934 0.85714298487 0.67857098579 0.78571397066 0.64285701513 0.71428602934
          0.60714298487 0.64285701513 0.57142901421 0.57142901421 0.53571397066 0.5
          0.5 0.42857098579 0.46428599954 0.35714301467 0.42857098579 0.28571400046
          0.82142901421 0.92857098579 0.85714298487 1 0.78571397066 0.85714298487
          0.75 0.78571397066 0.71428602934 0.71428602934 0.67857098579 0.64285701513
          0.64285701513 0.57142901421 0.60714298487 0.5 0.57142901421 0.42857098579
          0.53571397066 0.35714301467 0.5 0.28571400046 0.46428599954 0.21428599954
          0.89285701513 0.92857098579 0.92857098579 1 0.85714298487 0.85714298487
          0.82142901421 0.78571397066 0.78571397066 0.71428602934 0.75 0.64285701513
          0.71428602934 0.57142901421 0.67857098579 0.5 0.64285701513 0.42857098579
          0.60714298487 0.35714301467 0.57142901421 0.28571400046 0.53571397066 0.21428599954
          0.5 0.14285700023 0.96428602934 0.92857098579 1 1
          0.92857098579 0.85714298487 0.89285701513 0.78571397066 0.85714298487 0.71428602934
          0.82142901421 0.64285701513 0.78571397066 0.57142901421 0.75 0.5
          0.71428602934 0.42857098579 0.67857098579 0.35714301467 0.64285701513 0.28571400046
          0.60714298487 0.21428599954 0.57142901421 0.14285700023 0.53571397066 0.071428999305
          0.10714299977 0.92857098579 0.1785710007 0.92857098579 0.14285700023 0.85714298487
          0.25 0.92857098579 0.21428599954 0.85714298487 0.1785710007 0.78571397066
          0.32142901421 0.92857098579 0.28571400046 0.85714298487 0.25 0.78571397066
          0.21428599954 0.71428602934 0.39285698533 0.92857098579 0.35714301467 0.85714298487
          0.32142901421 0.78571397066 0.28571400046 0.71428602934 0.25 0.64285701513
          0.46428599954 0.92857098579 0.42857098579 0.85714298487 0.39285698533 0.78571397066
          0.35714301467 0.71428602934 0.32142901421 0.64285701513 0.28571400046 0.57142901421
          0.53571397066 0.92857098579 0.5 0.85714298487 0.46428599954 0.78571397066
          0.42857098579 0.71428602934 0.39285698533 0.64285701513 0.35714301467 0.57142901421
          0.32142901421 0.5 0.60714298487 0.92857098579 0.57142901421 0.85714298487
          0.53571397066 0.78571397066 0.5 0.71428602934 0.46428599954 0.64285701513
          0.42857098579 0.57142901421 0.39285698533 0.5 0.35714301467 0.42857098579
          0.67857098579 0.92857098579 0.64285701513 0.85714298487 0.60714298487 0.78571397066
          0.57142901421 0.71428602934 0.53571397066 0.64285701513 0.5 0.57142901421
          0.46428599954 0.5 0.42857098579 0.42857098579 0.39285698533 0.35714301467
          0.75 0.92857098579 0.71428602934 0.85714298487 0.67857098579 0.78571397066
          0.64285701513 0.71428602934 0.60714298487 0.64285701513 0.57142901421 0.57142901421
          0.53571397066 0.5 0.5 0.42857098579 0.46428599954 0.35714301467
          0.42857098579 0.28571400046 0.82142901421 0.92857098579 0.78571397066 0.85714298487
          0.75 0.78571397066 0.71428602934 0.71428602934 0.67857098579 0.64285701513
          0.64285701513 0.57142901421 0.60714298487 0.5 0.57142901421 0.42857098579
          0.53571397066 0.35714301467 0.5 0.28571400046 0.46428599954 0.21428599954
          0.89285701513 0.92857098579 0.85714298487 0.85714298487 0.82142901421 0.78571397066
          0.78571397066 0.71428602934 0.75 0.64285701513 0.71428602934 0.57142901421
          0.67857098579 0.5 0.64285701513 0.42857098579 0.60714298487 0.35714301467
          0.57142901421 0.28571400046 0.53571397066 0.21428599954 0.5 0.14285700023
          0.96428602934 0.92857098579 0.92857098579 0.85714298487 0.89285701513 0.78571397066
          0.85714298487 0.71428602934 0.82142901421 0.64285701513 0.78571397066 0.57142901421
          0.75 0.5 0.71428602934 0.42857098579 0.67857098579 0.35714301467
          0.64285701513 0.28571400046 0.60714298487 0.21428599954 0.57142901421 0.14285700023
          0.53571397066 0.071428999305 0.035714000463 0.92857098579 0.10714299977 0.92857098579
          0.071428999305 0.85714298487 0.1785710007 0.92857098579 0.14285700023 0.85714298487
          0.10714299977 0.78571397066 0.25 0.92857098579 0.21428599954 0.85714298487
          0.1785710007 0.78571397066 0.14285700023 0.71428602934 0.32142901421 0.92857098579
          0.28571400046 0.85714298487 0.25 0.78571397066 0.21428599954 0.71428602934
          0.1785710007 0.64285701513 0.39285698533 0.92857098579 0.35714301467 0.85714298487
          0.32142901421 0.78571397066 0.28571400046 0.71428602934 0.25 0.64285701513
          0.21428599954 0.57142901421 0.46428599954 0.92857098579 0.42857098579 0.85714298487
          0.39285698533 0.78571397066 0.35714301467 0.71428602934 0.32142901421 0.64285701513
          0.28571400046 0.57142901421 0.25 0.5 0.53571397066 0.92857098579
          0.5 0.85714298487 0.46428599954 0.78571397066 0.42857098579 0.71428602934
          0.39285698533 0.64285701513 0.35714301467 0.57142901421 0.32142901421 0.5
          0.28571400046 0.42857098579 0.60714298487 0.92857098579 0.57142901421 0.85714298487
          0.53571397066 0.78571397066 0.5 0.71428602934 0.46428599954 0.64285701513
          0.42857098579 0.57142901421 0.39285698533 0.5 0.35714301467 0.42857098579
          0.32142901421 0.35714301467 0.67857098579 0.92857098579 0.64285701513 0.85714298487
          0.60714298487 0.78571397066 0.57142901421 0.71428602934 0.53571397066 0.64285701513
          0.5 0.57142901421 0.46428599954 0.5 0.42857098579 0.42857098579
          0.39285698533 0.35714301467 0.35714301467 0.28571400046 0.75 0.92857098579
          0.71428602934 0.85714298487 0.67857098579 0.78571397066 0.64285701513 0.71428602934
          0.60714298487 0.64285701513 0.57142901421 0.57142901421 0.53571397066 0.5
          0.5 0.42857098579 0.46428599954 0.35714301467 0.42857098579 0.28571400046
          0.39285698533 0.21428599954 0.82142901421 0.92857098579 0.78571397066 0.85714298487
          0.75 0.78571397066 0.71428602934 0.71428602934 0.67857098579 0.64285701513
          0.64285701513 0.57142901421 0.60714298487 0.5 0.57142901421 0.42857098579
          0.53571397066 0.35714301467 0.5 0.28571400046 0.46428599954 0.21428599954
          0.42857098579 0.14285700023 0.89285701513 0.92857098579 0.85714298487 0.85714298487
          0.82142901421 0.78571397066 0.78571397066 0.71428602934 0.75 0.64285701513
          0.71428602934 0.57142901421 0.67857098579 0.5 0.64285701513 0.42857098579
          0.60714298487 0.35714301467 0.57142901421 0.28571400046 0.53571397066 0.21428599954
          0.5 0.14285700023 0.46428599954 0.071428999305 0.96428602934 0.92857098579
          0.92857098579 0.85714298487 0.89285701513 0.78571397066 0.85714298487 0.71428602934
          0.82142901421 0.64285701513 0.78571397066 0.57142901421 0.75 0.5
          0.71428602934 0.42857098579 0.67857098579 0.35714301467 0.64285701513 0.28571400046
          0.60714298487 0.21428599954 0.57142901421 0.14285700023 0.53571397066 0.071428999305
          0.5 0 0.035714000463 0.92857098579 0.10714299977 0.92857098579
          0.071428999305 0.85714298487 0.1785710007 0.92857098579 0.14285700023 0.85714298487
          0.10714299977 0.78571397066 0.25 0.92857098579 0.21428599954 0.85714298487
          0.1785710007 0.78571397066 0.14285700023 0.71428602934 0.32142901421 0.92857098579
          0.28571400046 0.85714298487 0.25 0.78571397066 0.21428599954 0.71428602934
          0.1785710007 0.64285701513 0.39285698533 0.92857098579 0.35714301467 0.85714298487
          0.32142901421 0.78571397066 0.28571400046 0.71428602934 0.25 0.64285701513
          0.21428599954 0.57142901421 0.46428599954 0.92857098579 0.42857098579 0.85714298487
          0.39285698533 0.78571397066 0.35714301467 0.71428602934 0.32142901421 0.64285701513
          0.28571400046 0.57142901421 0.25 0.5 0.53571397066 0.92857098579
          0.5 0.85714298487 0.46428599954 0.78571397066 0.42857098579 0.71428602934
          0.39285698533 0.64285701513 0.35714301467 0.57142901421 0.32142901421 0.5
          0.28571400046 0.42857098579 0.60714298487 0.92857098579 0.57142901421 0.85714298487
          0.53571397066 0.78571397066 0.5 0.71428602934 0.46428599954 0.64285701513
          0.42857098579 0.57142901421 0.39285698533 0.5 0.35714301467 0.42857098579
          0.32142901421 0.35714301467 0.67857098579 0.92857098579 0.64285701513 0.85714298487
          0.60714298487 0.78571397066 0.57142901421 0.71428602934 0.53571397066 0.64285701513
          0.5 0.57142901421 0.46428599954 0.5 0.42857098579 0.42857098579
          0.39285698533 0.35714301467 0.35714301467 0.28571400046 0.75 0.92857098579
          0.71428602934 0.85714298487 0.67857098579 0.78571397066 0.64285701513 0.71428602934
          0.60714298487 0.64285701513 0.57142901421 0.57142901421 0.53571397066 0.5
          0.5 0.42857098579 0.46428599954 0.35714301467 0.42857098579 0.28571400046
          0.39285698533 0.21428599954 0.82142901421 0.92857098579 0.78571397066 0.85714298487
          0.75 0.78571397066 0.71428602934 0.71428602934 0.67857098579 0.64285701513
          0.64285701513 0.57142901421 0.60714298487 0.5 0.57142901421 0.42857098579
          0.53571397066 0.35714301467 0.5 0.28571400046 0.46428599954 0.21428599954
          0.42857098579 0.14285700023 0.89285701513 0.92857098579 0.85714298487 0.85714298487
          0.82142901421 0.78571397066 0.78571397066 0.71428602934 0.75 0.64285701513
          0.71428602934 0.57142901421 0.67857098579 0.5 0.64285701513 0.42857098579
          0.60714298487 0.35714301467 0.57142901421 0.28571400046 0.53571397066 0.21428599954
          0.5 0.14285700023 0.46428599954 0.071428999305 0.96428602934 0.92857098579
          0.92857098579 0.85714298487 0.89285701513 0.78571397066 0.85714298487 0.71428602934
          0.82142901421 0.64285701513 0.78571397066 0.57142901421 0.75 0.5
          0.71428602934 0.42857098579 0.67857098579 0.35714301467 0.64285701513 0.28571400046
          0.60714298487 0.21428599954 0.57142901421 0.14285700023 0.53571397066 0.071428999305
          0.5 0 0.10714299977 0.92857098579 0.1785710007 0.92857098579
          0.14285700023 0.85714298487 0.25 0.92857098579 0.21428599954 0.85714298487
          0.1785710007 0.78571397066 0.32142901421 0.92857098579 0.28571400046 0.85714298487
          0.25 0.78571397066 0.21428599954 0.71428602934 0.39285698533 0.92857098579
          0.35714301467 0.85714298487 0.32142901421 0.78571397066 0.28571400046 0.71428602934
          0.25 0.64285701513 0.46428599954 0.92857098579 0.42857098579 0.85714298487
          0.39285698533 0.78571397066 0.35714301467 0.71428602934 0.32142901421 0.64285701513
          0.28571400046 0.57142901421 0.53571397066 0.92857098579 0.5 0.85714298487
          0.46428599954 0.78571397066 0.42857098579 0.71428602934 0.39285698533 0.64285701513
          0.35714301467 0.57142901421 0.32142901421 0.5 0.60714298487 0.92857098579
          0.57142901421 0.85714298487 0.53571397066 0.78571397066 0.5 0.71428602934
          0.46428599954 0.64285701513 0.42857098579 0.57142901421 0.39285698533 0.5
          0.35714301467 0.42857098579 0.67857098579 0.92857098579 0.64285701513 0.85714298487
          0.60714298487 0.78571397066 0.57142901421 0.71428602934 0.53571397066 0.64285701513
          0.5 0.57142901421 0.46428599954 0.5 0.42857098579 0.42857098579
          0.39285698533 0.35714301467 0.75 0.92857098579 0.71428602934 0.85714298487
          0.67857098579 0.78571397066 0.64285701513 0.71428602934 0.60714298487 0.64285701513
          0.57142901421 0.57142901421 0.53571397066 0.5 0.5 0.42857098579
          0.46428599954 0.35714301467 0.42857098579 0.28571400046 0.82142901421 0.92857098579
          0.78571397066 0.85714298487 0.75 0.78571397066 0.71428602934 0.71428602934
          0.67857098579 0.64285701513 0.64285701513 0.57142901421 0.60714298487 0.5
          0.57142901421 0.42857098579 0.53571397066 0.35714301467 0.5 0.28571400046
          0.46428599954 0.21428599954 0.89285701513 0.92857098579 0.85714298487 0.85714298487
          0.82142901421 0.78571397066 0.78571397066 0.71428602934 0.75 0.64285701513
          0.71428602934 0.57142901421 0.67857098579 0.5 0.64285701513 0.42857098579
          0.60714298487 0.35714301467 0.57142901421 0.28571400046 0.53571397066 0.21428599954
          0.5 0.14285700023 0.96428602934 0.92857098579 0.92857098579 0.85714298487
          0.89285701513 0.78571397066 0.85714298487 0.71428602934 0.82142901421 0.64285701513
          0.78571397066 0.57142901421 0.75 0.5 0.71428602934 0.42857098579
          0.67857098579 0.35714301467 0.64285701513 0.28571400046 0.60714298487 0.21428599954
          0.57142901421 0.14285700023 0.53571397066 0.071428999305 0.035714000463 0.92857098579
          0.071428999305 1 0 1 0.10714299977 0.92857098579
          0.14285700023 1 0.071428999305 0.85714298487 0.1785710007 0.92857098579
          0.21428599954 1 0.14285700023 0.85714298487 0.10714299977 0.78571397066
          0.25 0.92857098579 0.28571400046 1 0.21428599954 0.85714298487
          0.1785710007 0.78571397066 0.14285700023 0.71428602934 0.32142901421 0.92857098579
          0.35714301467 1 0.28571400046 0.85714298487 0.25 0.78571397066
          0.21428599954 0.71428602934 0.1785710007 0.64285701513 0.39285698533 0.92857098579
          0.42857098579 1 0.35714301467 0.85714298487 0.32142901421 0.78571397066
          0.28571400046 0.71428602934 0.25 0.64285701513 0.21428599954 0.57142901421
          0.46428599954 0.92857098579 0.5 1 0.42857098579 0.85714298487
          0.39285698533 0.78571397066 0.35714301467 0.71428602934 0.32142901421 0.64285701513
          0.28571400046 0.57142901421 0.25 0.5 0.53571397066 0.92857098579
          0.57142901421 1 0.5 0.85714298487 0.46428599954 0.78571397066
          0.42857098579 0.71428602934 0.39285698533 0.64285701513 0.35714301467 0.57142901421
          0.32142901421 0.5 0.28571400046 0.42857098579 0.60714298487 0.92857098579
          0.64285701513 1 0.57142901421 0.85714298487 0.53571397066 0.78571397066
          0.5 0.71428602934 0.46428599954 0.64285701513 0.42857098579 0.57142901421
          0.39285698533 0.5 0.35714301467 0.42857098579 0.32142901421 0.35714301467
          0.67857098579 0.92857098579 0.71428602934 1 0.64285701513 0.85714298487
          0.60714298487 0.78571397066 0.57142901421 0.71428602934 0.53571397066 0.64285701513
          0.5 0.57142901421 0.46428599954 0.5 0.42857098579 0.42857098579
          0.39285698533 0.35714301467 0.35714301467 0.28571400046 0.75 0.92857098579
          0.78571397066 1 0.71428602934 0.85714298487 0.67857098579 0.78571397066
          0.64285701513 0.71428602934 0.60714298487 0.64285701513 0.57142901421 0.57142901421
          0.53571397066 0.5 0.5 0.42857098579 0.46428599954 0.35714301467
          0.42857098579 0.28571400046 0.39285698533 0.21428599954 0.82142901421 0.92857098579
          0.85714298487 1 0.78571397066 0.85714298487 0.75 0.78571397066
          0.71428602934 0.71428602934 0.67857098579 0.64285701513 0.64285701513 0.57142901421
          0.60714298487 0.5 0.57142901421 0.42857098579 0.53571397066 0.35714301467
          0.5 0.28571400046 0.46428599954 0.21428599954 0.42857098579 0.14285700023
          0.89285701513 0.92857098579 0.92857098579 1 0.85714298487 0.85714298487
          0.82142901421 0.78571397066 0.78571397066 0.71428602934 0.75 0.64285701513
          0.71428602934 0.57142901421 0.67857098579 0.5 0.64285701513 0.42857098579
          0.60714298487 0.35714301467 0.57142901421 0.28571400046 0.53571397066 0.21428599954
          0.5 0.14285700023 0.46428599954 0.071428999305 0.96428602934 0.92857098579
          1 1 0.92857098579 0.85714298487 0.89285701513 0.78571397066
          0.85714298487 0.71428602934 0.82142901421 0.64285701513 0.78571397066 0.57142901421
          0.75 0.5 0.71428602934 0.42857098579 0.67857098579 0.35714301467
          0.64285701513 0.28571400046 0.60714298487 0.21428599954 0.57142901421 0.14285700023
          0.53571397066 0.071428999305 0.5 0 0.035714000463 0.92857098579
          0.071428999305 1 0.10714299977 0.92857098579 0.14285700023 1
          0.071428999305 0.85714298487 0.1785710007 0.92857098579 0.21428599954 1
          0.14285700023 0.85714298487 0.10714299977 0.78571397066 0.25 0.92857098579
          0.28571400046 1 0.21428599954 0.85714298487 0.1785710007 0.78571397066
          0.14285700023 0.71428602934 0.32142901421 0.92857098579 0.35714301467 1
          0.28571400046 0.85714298487 0.25 0.78571397066 0.21428599954 0.71428602934
          0.1785710007 0.64285701513 0.39285698533 0.92857098579 0.42857098579 1
          0.35714301467 0.85714298487 0.32142901421 0.78571397066 0.28571400046 0.71428602934
          0.25 0.64285701513 0.21428599954 0.57142901421 0.46428599954 0.92857098579
          0.5 1 0.42857098579 0.85714298487 0.39285698533 0.78571397066
          0.35714301467 0.71428602934 0.32142901421 0.64285701513 0.28571400046 0.57142901421
          0.25 0.5 0.53571397066 0.92857098579 0.57142901421 1
          0.5 0.85714298487 0.46428599954 0.78571397066 0.42857098579 0.71428602934
          0.39285698533 0.64285701513 0.35714301467 0.57142901421 0.32142901421 0.5
          0.28571400046 0.42857098579 0.60714298487 0.92857098579 0.64285701513 1
          0.57142901421 0.85714298487 0.53571397066 0.78571397066 0.5 0.71428602934
          0.46428599954 0.64285701513 0.42857098579 0.57142901421 0.39285698533 0.5
          0.35714301467 0.42857098579 0.32142901421 0.35714301467 0.67857098579 0.92857098579
          0.71428602934 1 0.64285701513 0.85714298487 0.60714298487 0.78571397066
          0.57142901421 0.71428602934 0.53571397066 0.64285701513 0.5 0.57142901421
          0.46428599954 0.5 0.42857098579 0.42857098579 0.39285698533 0.35714301467
          0.35714301467 0.28571400046 0.75 0.92857098579 0.78571397066 1
          0.71428602934 0.85714298487 0.67857098579 0.78571397066 0.64285701513 0.71428602934
          0.60714298487 0.64285701513 0.57142901421 0.57142901421 0.53571397066 0.5
          0.5 0.42857098579 0.46428599954 0.35714301467 0.42857098579 0.28571400046
          0.39285698533 0.21428599954 0.82142901421 0.92857098579 0.85714298487 1
          0.78571397066 0.85714298487 0.75 0.78571397066 0.71428602934 0.71428602934
          0.67857098579 0.64285701513 0.64285701513 0.57142901421 0.60714298487 0.5
          0.57142901421 0.42857098579 0.53571397066 0.35714301467 0.5 0.28571400046
          0.46428599954 0.21428599954 0.42857098579 0.14285700023 0.89285701513 0.92857098579
          0.92857098579 1 0.85714298487 0.85714298487 0.82142901421 0.78571397066
          0.78571397066 0.71428602934 0.75 0.64285701513 0.71428602934 0.57142901421
          0.67857098579 0.5 0.64285701513 0.42857098579 0.60714298487 0.35714301467
          0.57142901421 0.28571400046 0.53571397066 0.21428599954 0.5 0.14285700023