<VTKFile type="UnstructuredGrid" version="0.1" byte_order="LittleEndian">
  <UnstructuredGrid>
    <Piece NumberOfPoints="27216" NumberOfCells="54432">
      <PointData TCoords="TCoords_">
        <DataArray type="Float32" Name="TCoords_" NumberOfComponents="2" format="ascii" RangeMin="0.011887294397" RangeMax="1.4119999355">
          0.011466999538 0.99686700106 0.011466999538 1 0 1
          0.022933000699 0.99686700106 0.022933000699 1 0.034660000354 0.99686700106
          0.034660000354 1 0.046443998814 0.99686700106 0.046443998814 1
          0.058375999331 0.99686700106 0.058375999331 1 0.070372998714 0.99686700106
          0.070372998714 1 0.082446999848 0.99686700106 0.082446999848 1
          0.094571001828 0.99686700106 0.094571001828 1 0.1067269966 0.99686700106
          0.1067269966 1 0.11890900135 0.99686700106 0.11890900135 1
          0.13109099865 0.99686700106 0.13109099865 1 0.14327299595 0.99686700106
          0.14327299595 1 0.15542900562 0.99686700106 0.15542900562 1
          0.1675529927 0.99686700106 0.1675529927 1 0.17962700129 0.99686700106
          0.17962700129 1 0.19162400067 0.99686700106 0.19162400067 1
          0.20355600119 0.99686700106 0.20355600119 1 0.21534000337 0.99686700106
          0.21534000337 1 0.22706699371 0.99686700106 0.22706699371 1
          0.23853300512 0.99686700106 0.23853300512 1 0.25 0.99686700106
          0.25 1 0.26146700978 0.99686700106 0.26146700978 1
          0.27293300629 0.99686700106 0.27293300629 1 0.28466001153 0.99686700106
          0.28466001153 1 0.29644399881 0.99686700106 0.29644399881 1
          0.30837601423 0.99686700106 0.30837601423 1 0.32037299871 0.99686700106
          0.32037299871 1 0.3324469924 0.99686700106 0.3324469924 1
          0.34457099438 0.99686700106 0.34457099438 1 0.35672700405 0.99686700106
          0.35672700405 1 0.36890900135 0.99686700106 0.36890900135 1
          0.38109099865 0.99686700106 0.38109099865 1 0.39327299595 0.99686700106
          0.39327299595 1 0.40542900562 0.99686700106 0.40542900562 1
          0.4175530076 0.99686700106 0.4175530076 1 0.42962700129 0.99686700106
          0.42962700129 1 0.44162398577 0.99686700106 0.44162398577 1
          0.45355600119 0.99686700106 0.45355600119 1 0.46533998847 0.99686700106
          0.46533998847 1 0.47706699371 0.99686700106 0.47706699371 1
          0.48853299022 0.99686700106 0.48853299022 1 0.5 0.99686700106
          0.5 1 0.51146697998 0.99686700106 0.51146697998 1
          0.52293300629 0.99686700106 0.52293300629 1 0.53465998173 0.99686700106
          0.53465998173 1 0.54644399881 0.99686700106 0.54644399881 1
          0.55837601423 0.99686700106 0.55837601423 1 0.57037299871 0.99686700106
          0.57037299871 1 0.5824469924 0.99686700106 0.5824469924 1
          0.59457099438 0.99686700106 0.59457099438 1 0.60672700405 0.99686700106
          0.60672700405 1 0.61890900135 0.99686700106 0.61890900135 1
          0.63109099865 0.99686700106 0.63109099865 1 0.64327299595 0.99686700106
          0.64327299595 1 0.65542900562 0.99686700106 0.65542900562 1
          0.6675530076 0.99686700106 0.6675530076 1 0.67962700129 0.99686700106
          0.67962700129 1 0.69162398577 0.99686700106 0.69162398577 1
          0.70355600119 0.99686700106 0.70355600119 1 0.71534001827 0.99686700106
          0.71534001827 1 0.72706699371 0.99686700106 0.72706699371 1
          0.73853302002 0.99686700106 0.73853302002 1 0.75 0.99686700106
          0.75 1 0.76146697998 0.99686700106 0.76146697998 1
          0.77293300629 0.99686700106 0.77293300629 1 0.78465998173 0.99686700106
          0.78465998173 1 0.79644399881 0.99686700106 0.79644399881 1
          0.80837601423 0.99686700106 0.80837601423 1 0.82037299871 0.99686700106
          0.82037299871 1 0.83244800568 0.99686700106 0.83244800568 1
          0.84457099438 0.99686700106 0.84457099438 1 0.85672700405 0.99686700106
          0.85672700405 1 0.86890900135 0.99686700106 0.86890900135 1
          0.88109099865 0.99686700106 0.88109099865 1 0.89327400923 0.99686700106
          0.89327400923 1 0.90542900562 0.99686700106 0.90542900562 1
          0.9175530076 0.99686700106 0.9175530076 1 0.92962801456 0.99686700106
          0.92962801456 1 0.94162398577 0.99686700106 0.94162398577 1
          0.95355701447 0.99686700106 0.95355701447 1 0.96534001827 0.99686700106
          0.96534001827 1 0.97706699371 0.99686700106 0.97706699371 1
          0.98853397369 0.99686700106 0.98853397369 1 1 0.99686700106
          0.011466999538 0.99374699593 0.022933000699 0.99374699593 0.034660000354 0.99374699593
          0.046443998814 0.99374699593 0.058375999331 0.99374699593 0.070372998714 0.99374699593
          0.082446999848 0.99374699593 0.094571001828 0.99374699593 0.1067269966 0.99374699593
          0.11890900135 0.99374699593 0.13109099865 0.99374699593 0.14327299595 0.99374699593
          0.15542900562 0.99374699593 0.1675529927 0.99374699593 0.17962700129 0.99374699593
          0.19162400067 0.99374699593 0.20355600119 0.99374699593 0.21534000337 0.99374699593
          0.22706699371 0.99374699593 0.23853300512 0.99374699593 0.25 0.99374699593
          0.26146700978 0.99374699593 0.27293300629 0.99374699593 0.28466001153 0.99374699593
          0.29644399881 0.99374699593 0.30837601423 0.99374699593 0.32037299871 0.99374699593
          0.3324469924 0.99374699593 0.34457099438 0.99374699593 0.35672700405 0.99374699593
          0.36890900135 0.99374699593 0.38109099865 0.99374699593 0.39327299595 0.99374699593
          0.40542900562 0.99374699593 0.4175530076 0.99374699593 0.42962700129 0.99374699593
          0.44162398577 0.99374699593 0.45355600119 0.99374699593 0.46533998847 0.99374699593
          0.47706699371 0.99374699593 0.48853299022 0.99374699593 0.5 0.99374699593
          0.51146697998 0.99374699593 0.52293300629 0.99374699593 0.53465998173 0.99374699593
          0.54644399881 0.99374699593 0.55837601423 0.99374699593 0.57037299871 0.99374699593
          0.5824469924 0.99374699593 0.59457099438 0.99374699593 0.60672700405 0.99374699593
          0.61890900135 0.99374699593 0.63109099865 0.99374699593 0.64327299595 0.99374699593
          0.65542900562 0.99374699593 0.6675530076 0.99374699593 0.67962700129 0.99374699593
          0.69162398577 0.99374699593 0.70355600119 0.99374699593 0.71534001827 0.99374699593
          0.72706699371 0.99374699593 0.73853302002 0.99374699593 0.75 0.99374699593
          0.76146697998 0.99374699593 0.77293300629 0.99374699593 0.78465998173 0.99374699593
          0.79644399881 0.99374699593 0.80837601423 0.99374699593 0.82037299871 0.99374699593
          0.83244800568 0.99374699593 0.84457099438 0.99374699593 0.85672700405 0.99374699593
          0.86890900135 0.99374699593 0.88109099865 0.99374699593 0.89327400923 0.99374699593
          0.90542900562 0.99374699593 0.9175530076 0.99374699593 0.92962801456 0.99374699593
          0.94162398577 0.99374699593 0.95355701447 0.99374699593 0.96534001827 0.99374699593
          0.97706699371 0.99374699593 0.98853397369 0.99374699593 1 0.99374699593
          0.011466999538 0.99064099789 0.022933000699 0.99064099789 0.034660000354 0.99064099789
          0.046443998814 0.99064099789 0.058375999331 0.99064099789 0.070372998714 0.99064099789
          0.082446999848 0.99064099789 0.094571001828 0.99064099789 0.1067269966 0.99064099789
          0.11890900135 0.99064099789 0.13109099865 0.99064099789 0.14327299595 0.99064099789
          0.15542900562 0.99064099789 0.1675529927 0.99064099789 0.17962700129 0.99064099789
          0.19162400067 0.99064099789 0.20355600119 0.99064099789 0.21534000337 0.99064099789
          0.22706699371 0.99064099789 0.23853300512 0.99064099789 0.25 0.99064099789
          0.26146700978 0.99064099789 0.27293300629 0.99064099789 0.28466001153 0.99064099789
          0.29644399881 0.99064099789 0.30837601423 0.99064099789 0.32037299871 0.99064099789
          0.3324469924 0.99064099789 0.34457099438 0.99064099789 0.35672700405 0.99064099789
          0.36890900135 0.99064099789 0.38109099865 0.99064099789 0.39327299595 0.99064099789
          0.40542900562 0.99064099789 0.4175530076 0.99064099789 0.42962700129 0.99064099789
          0.44162398577 0.99064099789 0.45355600119 0.99064099789 0.46533998847 0.99064099789
          0.47706699371 0.99064099789 0.48853299022 0.99064099789 0.5 0.99064099789
          0.51146697998 0.99064099789 0.52293300629 0.99064099789 0.53465998173 0.99064099789
          0.54644399881 0.99064099789 0.55837601423 0.99064099789 0.57037299871 0.99064099789
          0.5824469924 0.99064099789 0.59457099438 0.99064099789 0.60672700405 0.99064099789
          0.61890900135 0.99064099789 0.63109099865 0.99064099789 0.64327299595 0.99064099789
          0.65542900562 0.99064099789 0.6675530076 0.99064099789 0.67962700129 0.99064099789
          0.69162398577 0.99064099789 0.70355600119 0.99064099789 0.71534001827 0.99064099789
          0.72706699371 0.99064099789 0.73853302002 0.99064099789 0.75 0.99064099789
          0.76146697998 0.99064099789 0.77293300629 0.99064099789 0.78465998173 0.99064099789
          0.79644399881 0.99064099789 0.80837601423 0.99064099789 0.82037299871 0.99064099789
          0.83244800568 0.99064099789 0.84457099438 0.99064099789 0.85672700405 0.99064099789
          0.86890900135 0.99064099789 0.88109099865 0.99064099789 0.89327400923 0.99064099789
          0.90542900562 0.99064099789 0.9175530076 0.99064099789 0.92962801456 0.99064099789
          0.94162398577 0.99064099789 0.95355701447 0.99064099789 0.96534001827 0.99064099789
          0.97706699371 0.99064099789 0.98853397369 0.99064099789 1 0.99064099789
          0.011466999538 0.98754799366 0.022933000699 0.98754799366 0.034660000354 0.98754799366
          0.046443998814 0.98754799366 0.058375999331 0.98754799366 0.070372998714 0.98754799366
          0.082446999848 0.98754799366 0.094571001828 0.98754799366 0.1067269966 0.98754799366
          0.11890900135 0.98754799366 0.13109099865 0.98754799366 0.14327299595 0.98754799366
          0.15542900562 0.98754799366 0.1675529927 0.98754799366 0.17962700129 0.98754799366
          0.19162400067 0.98754799366 0.20355600119 0.98754799366 0.21534000337 0.98754799366
          0.22706699371 0.98754799366 0.23853300512 0.98754799366 0.25 0.98754799366
          0.26146700978 0.98754799366 0.27293300629 0.98754799366 0.28466001153 0.98754799366
          0.29644399881 0.98754799366 0.30837601423 0.98754799366 0.32037299871 0.98754799366
          0.3324469924 0.98754799366 0.34457099438 0.98754799366 0.35672700405 0.98754799366
          0.36890900135 0.98754799366 0.38109099865 0.98754799366 0.39327299595 0.98754799366
          0.40542900562 0.98754799366 0.4175530076 0.98754799366 0.42962700129 0.98754799366
          0.44162398577 0.98754799366 0.45355600119 0.98754799366 0.46533998847 0.98754799366
          0.47706699371 0.98754799366 0.48853299022 0.98754799366 0.5 0.98754799366
          0.51146697998 0.98754799366 0.52293300629 0.98754799366 0.53465998173 0.98754799366
          0.54644399881 0.98754799366 0.55837601423 0.98754799366 0.57037299871 0.98754799366
          0.5824469924 0.98754799366 0.59457099438 0.98754799366 0.60672700405 0.98754799366
          0.61890900135 0.98754799366 0.63109099865 0.98754799366 0.64327299595 0.98754799366
          0.65542900562 0.98754799366 0.6675530076 0.98754799366 0.67962700129 0.98754799366
          0.69162398577 0.98754799366 0.70355600119 0.98754799366 0.71534001827 0.98754799366
          0.72706699371 0.98754799366 0.73853302002 0.98754799366 0.75 0.98754799366
          0.76146697998 0.98754799366 0.77293300629 0.98754799366 0.78465998173 0.98754799366
          0.79644399881 0.98754799366 0.80837601423 0.98754799366 0.82037299871 0.98754799366
          0.83244800568 0.98754799366 0.84457099438 0.98754799366 0.85672700405 0.98754799366
          0.86890900135 0.98754799366 0.88109099865 0.98754799366 0.89327400923 0.98754799366
          0.90542900562 0.98754799366 0.9175530076 0.98754799366 0.92962801456 0.98754799366
          0.94162398577 0.98754799366 0.95355701447 0.98754799366 0.96534001827 0.98754799366
          0.97706699371 0.98754799366 0.98853397369 0.98754799366 1 0.98754799366
          0.011466999538 0.98446601629 0.022933000699 0.98446601629 0.034660000354 0.98446601629
          0.046443998814 0.98446601629 0.058375999331 0.98446601629 0.070372998714 0.98446601629
          0.082446999848 0.98446601629 0.094571001828 0.98446601629 0.1067269966 0.98446601629
          0.11890900135 0.98446601629 0.13109099865 0.98446601629 0.14327299595 0.98446601629
          0.15542900562 0.98446601629 0.1675529927 0.98446601629 0.17962700129 0.98446601629
          0.19162400067 0.98446601629 0.20355600119 0.98446601629 0.21534000337 0.98446601629
          0.22706699371 0.98446601629 0.23853300512 0.98446601629 0.25 0.98446601629
          0.26146700978 0.98446601629 0.27293300629 0.98446601629 0.28466001153 0.98446601629
          0.29644399881 0.98446601629 0.30837601423 0.98446601629 0.32037299871 0.98446601629
          0.3324469924 0.98446601629 0.34457099438 0.98446601629 0.35672700405 0.98446601629
          0.36890900135 0.98446601629 0.38109099865 0.98446601629 0.39327299595 0.98446601629
          0.40542900562 0.98446601629 0.4175530076 0.98446601629 0.42962700129 0.98446601629
          0.44162398577 0.98446601629 0.45355600119 0.98446601629 0.46533998847 0.98446601629
          0.47706699371 0.98446601629 0.48853299022 0.98446601629 0.5 0.98446601629
          0.51146697998 0.98446601629 0.52293300629 0.98446601629 0.53465998173 0.98446601629
          0.54644399881 0.98446601629 0.55837601423 0.98446601629 0.57037299871 0.98446601629
          0.5824469924 0.98446601629 0.59457099438 0.98446601629 0.60672700405 0.98446601629
          0.61890900135 0.98446601629 0.63109099865 0.98446601629 0.64327299595 0.98446601629
          0.65542900562 0.98446601629 0.6675530076 0.98446601629 0.67962700129 0.98446601629
          0.69162398577 0.98446601629 0.70355600119 0.98446601629 0.71534001827 0.98446601629
          0.72706699371 0.98446601629 0.73853302002 0.98446601629 0.75 0.98446601629
          0.76146697998 0.98446601629 0.77293300629 0.98446601629 0.78465998173 0.98446601629
          0.79644399881 0.98446601629 0.80837601423 0.98446601629 0.82037299871 0.98446601629
          0.83244800568 0.98446601629 0.84457099438 0.98446601629 0.85672700405 0.98446601629
          0.86890900135 0.98446601629 0.88109099865 0.98446601629 0.89327400923 0.98446601629
          0.90542900562 0.98446601629 0.9175530076 0.98446601629 0.92962801456 0.98446601629
          0.94162398577 0.98446601629 0.95355701447 0.98446601629 0.96534001827 0.98446601629
          0.97706699371 0.98446601629 0.98853397369 0.98446601629 1 0.98446601629
          0.011466999538 0.98139601946 0.022933000699 0.98139601946 0.034660000354 0.98139601946
          0.046443998814 0.98139601946 0.058375999331 0.98139601946 0.070372998714 0.98139601946
          0.082446999848 0.98139601946 0.094571001828 0.98139601946 0.1067269966 0.98139601946
          0.11890900135 0.98139601946 0.13109099865 0.98139601946 0.14327299595 0.98139601946
          0.15542900562 0.98139601946 0.1675529927 0.98139601946 0.17962700129 0.98139601946
          0.19162400067 0.98139601946 0.20355600119 0.98139601946 0.21534000337 0.98139601946
          0.22706699371 0.98139601946 0.23853300512 0.98139601946 0.25 0.98139601946
          0.26146700978 0.98139601946 0.27293300629 0.98139601946 0.28466001153 0.98139601946
          0.29644399881 0.98139601946 0.30837601423 0.98139601946 0.32037299871 0.98139601946
          0.3324469924 0.98139601946 0.34457099438 0.98139601946 0.35672700405 0.98139601946
          0.36890900135 0.98139601946 0.38109099865 0.98139601946 0.39327299595 0.98139601946
          0.40542900562 0.98139601946 0.4175530076 0.98139601946 0.42962700129 0.98139601946
          0.44162398577 0.98139601946 0.45355600119 0.98139601946 0.46533998847 0.98139601946
          0.47706699371 0.98139601946 0.48853299022 0.98139601946 0.5 0.98139601946
          0.51146697998 0.98139601946 0.52293300629 0.98139601946 0.53465998173 0.98139601946
          0.54644399881 0.98139601946 0.55837601423 0.98139601946 0.57037299871 0.98139601946
          0.5824469924 0.98139601946 0.59457099438 0.98139601946 0.60672700405 0.98139601946
          0.61890900135 0.98139601946 0.63109099865 0.98139601946 0.64327299595 0.98139601946
          0.65542900562 0.98139601946 0.6675530076 0.98139601946 0.67962700129 0.98139601946
          0.69162398577 0.98139601946 0.70355600119 0.98139601946 0.71534001827 0.98139601946
          0.72706699371 0.98139601946 0.73853302002 0.98139601946 0.75 0.98139601946
          0.76146697998 0.98139601946 0.77293300629 0.98139601946 0.78465998173 0.98139601946
          0.79644399881 0.98139601946 0.80837601423 0.98139601946 0.82037299871 0.98139601946
          0.83244800568 0.98139601946 0.84457099438 0.98139601946 0.85672700405 0.98139601946
          0.86890900135 0.98139601946 0.88109099865 0.98139601946 0.89327400923 0.98139601946
          0.90542900562 0.98139601946 0.9175530076 0.98139601946 0.92962801456 0.98139601946
          0.94162398577 0.98139601946 0.95355701447 0.98139601946 0.96534001827 0.98139601946
          0.97706699371 0.98139601946 0.98853397369 0.98139601946 1 0.98139601946
          0.011466999538 0.97833698988 0.022933000699 0.97833698988 0.034660000354 0.97833698988
          0.046443998814 0.97833698988 0.058375999331 0.97833698988 0.070372998714 0.97833698988
          0.082446999848 0.97833698988 0.094571001828 0.97833698988 0.1067269966 0.97833698988
          0.11890900135 0.97833698988 0.13109099865 0.97833698988 0.14327299595 0.97833698988
          0.15542900562 0.97833698988 0.1675529927 0.97833698988 0.17962700129 0.97833698988
          0.19162400067 0.97833698988 0.20355600119 0.97833698988 0.21534000337 0.97833698988
          0.22706699371 0.97833698988 0.23853300512 0.97833698988 0.25 0.97833698988
          0.26146700978 0.97833698988 0.27293300629 0.97833698988 0.28466001153 0.97833698988
          0.29644399881 0.97833698988 0.30837601423 0.97833698988 0.32037299871 0.97833698988
          0.3324469924 0.97833698988 0.34457099438 0.97833698988 0.35672700405 0.97833698988
          0.36890900135 0.97833698988 0.38109099865 0.97833698988 0.39327299595 0.97833698988
          0.40542900562 0.97833698988 0.4175530076 0.97833698988 0.42962700129 0.97833698988
          0.44162398577 0.97833698988 0.45355600119 0.97833698988 0.46533998847 0.97833698988
          0.47706699371 0.97833698988 0.48853299022 0.97833698988 0.5 0.97833698988
          0.51146697998 0.97833698988 0.52293300629 0.97833698988 0.53465998173 0.97833698988
          0.54644399881 0.97833698988 0.55837601423 0.97833698988 0.57037299871 0.97833698988
          0.5824469924 0.97833698988 0.59457099438 0.97833698988 0.60672700405 0.97833698988
          0.61890900135 0.97833698988 0.63109099865 0.97833698988 0.64327299595 0.97833698988
          0.65542900562 0.97833698988 0.6675530076 0.97833698988 0.67962700129 0.97833698988
          0.69162398577 0.97833698988 0.70355600119 0.97833698988 0.71534001827 0.97833698988
          0.72706699371 0.97833698988 0.73853302002 0.97833698988 0.75 0.97833698988
          0.76146697998 0.97833698988 0.77293300629 0.97833698988 0.78465998173 0.97833698988
          0.79644399881 0.97833698988 0.80837601423 0.97833698988 0.82037299871 0.97833698988
          0.83244800568 0.97833698988 0.84457099438 0.97833698988 0.85672700405 0.97833698988
          0.86890900135 0.97833698988 0.88109099865 0.97833698988 0.89327400923 0.97833698988
          0.90542900562 0.97833698988 0.9175530076 0.97833698988 0.92962801456 0.97833698988
          0.94162398577 0.97833698988 0.95355701447 0.97833698988 0.96534001827 0.97833698988
          0.97706699371 0.97833698988 0.98853397369 0.97833698988 1 0.97833698988
          0.011466999538 0.97528898716 0.022933000699 0.97528898716 0.034660000354 0.97528898716
          0.046443998814 0.97528898716 0.058375999331 0.97528898716 0.070372998714 0.97528898716
          0.082446999848 0.97528898716 0.094571001828 0.97528898716 0.1067269966 0.97528898716
          0.11890900135 0.97528898716 0.13109099865 0.97528898716 0.14327299595 0.97528898716
          0.15542900562 0.97528898716 0.1675529927 0.97528898716 0.17962700129 0.97528898716
          0.19162400067 0.97528898716 0.20355600119 0.97528898716 0.21534000337 0.97528898716
          0.22706699371 0.97528898716 0.23853300512 0.97528898716 0.25 0.97528898716
          0.26146700978 0.97528898716 0.27293300629 0.97528898716 0.28466001153 0.97528898716
          0.29644399881 0.97528898716 0.30837601423 0.97528898716 0.32037299871 0.97528898716
          0.3324469924 0.97528898716 0.34457099438 0.97528898716 0.35672700405 0.97528898716
          0.36890900135 0.97528898716 0.38109099865 0.97528898716 0.39327299595 0.97528898716
          0.40542900562 0.97528898716 0.4175530076 0.97528898716 0.42962700129 0.97528898716
          0.44162398577 0.97528898716 0.45355600119 0.97528898716 0.46533998847 0.97528898716
          0.47706699371 0.97528898716 0.48853299022 0.97528898716 0.5 0.97528898716
          0.51146697998 0.97528898716 0.52293300629 0.97528898716 0.53465998173 0.97528898716
          0.54644399881 0.97528898716 0.55837601423 0.97528898716 0.57037299871 0.97528898716
          0.5824469924 0.97528898716 0.59457099438 0.97528898716 0.60672700405 0.97528898716
          0.61890900135 0.97528898716 0.63109099865 0.97528898716 0.64327299595 0.97528898716
          0.65542900562 0.97528898716 0.6675530076 0.97528898716 0.67962700129 0.97528898716
          0.69162398577 0.97528898716 0.70355600119 0.97528898716 0.71534001827 0.97528898716
          0.72706699371 0.97528898716 0.73853302002 0.97528898716 0.75 0.97528898716
          0.76146697998 0.97528898716 0.77293300629 0.97528898716 0.78465998173 0.97528898716
          0.79644399881 0.97528898716 0.80837601423 0.97528898716 0.82037299871 0.97528898716
          0.83244800568 0.97528898716 0.84457099438 0.97528898716 0.85672700405 0.97528898716
          0.86890900135 0.97528898716 0.88109099865 0.97528898716 0.89327400923 0.97528898716
          0.90542900562 0.97528898716 0.9175530076 0.97528898716 0.92962801456 0.97528898716
          0.94162398577 0.97528898716 0.95355701447 0.97528898716 0.96534001827 0.97528898716
          0.97706699371 0.97528898716 0.98853397369 0.97528898716 1 0.97528898716
          0.011466999538 0.97220098972 0.022933000699 0.97220098972 0.034660000354 0.97220098972
          0.046443998814 0.97220098972 0.058375999331 0.97220098972 0.070372998714 0.97220098972
          0.082446999848 0.97220098972 0.094571001828 0.97220098972 0.1067269966 0.97220098972
          0.11890900135 0.97220098972 0.13109099865 0.97220098972 0.14327299595 0.97220098972
          0.15542900562 0.97220098972 0.1675529927 0.97220098972 0.17962700129 0.97220098972
          0.19162400067 0.97220098972 0.20355600119 0.97220098972 0.21534000337 0.97220098972
          0.22706699371 0.97220098972 0.23853300512 0.97220098972 0.25 0.97220098972
          0.26146700978 0.97220098972 0.27293300629 0.97220098972 0.28466001153 0.97220098972
          0.29644399881 0.97220098972 0.30837601423 0.97220098972 0.32037299871 0.97220098972
          0.3324469924 0.97220098972 0.34457099438 0.97220098972 0.35672700405 0.97220098972
          0.36890900135 0.97220098972 0.38109099865 0.97220098972 0.39327299595 0.97220098972
          0.40542900562 0.97220098972 0.4175530076 0.97220098972 0.42962700129 0.97220098972
          0.44162398577 0.97220098972 0.45355600119 0.97220098972 0.46533998847 0.97220098972
          0.47706699371 0.97220098972 0.48853299022 0.97220098972 0.5 0.97220098972
          0.51146697998 0.97220098972 0.52293300629 0.97220098972 0.53465998173 0.97220098972
          0.54644399881 0.97220098972 0.55837601423 0.97220098972 0.57037299871 0.97220098972
          0.5824469924 0.97220098972 0.59457099438 0.97220098972 0.60672700405 0.97220098972
          0.61890900135 0.97220098972 0.63109099865 0.97220098972 0.64327299595 0.97220098972
          0.65542900562 0.97220098972 0.6675530076 0.97220098972 0.67962700129 0.97220098972
          0.69162398577 0.97220098972 0.70355600119 0.97220098972 0.71534001827 0.97220098972
          0.72706699371 0.97220098972 0.73853302002 0.97220098972 0.75 0.97220098972
          0.76146697998 0.97220098972 0.77293300629 0.97220098972 0.78465998173 0.97220098972
          0.79644399881 0.97220098972 0.80837601423 0.97220098972 0.82037299871 0.97220098972
          0.83244800568 0.97220098972 0.84457099438 0.97220098972 0.85672700405 0.97220098972
          0.86890900135 0.97220098972 0.88109099865 0.97220098972 0.89327400923 0.97220098972
          0.90542900562 0.97220098972 0.9175530076 0.97220098972 0.92962801456 0.97220098972
          0.94162398577 0.97220098972 0.95355701447 0.97220098972 0.96534001827 0.97220098972
          0.97706699371 0.97220098972 0.98853397369 0.97220098972 1 0.97220098972
          0.011466999538 0.96908801794 0.022933000699 0.96908801794 0.034660000354 0.96908801794
          0.046443998814 0.96908801794 0.058375999331 0.96908801794 0.070372998714 0.96908801794
          0.082446999848 0.96908801794 0.094571001828 0.96908801794 0.1067269966 0.96908801794
          0.11890900135 0.96908801794 0.13109099865 0.96908801794 0.14327299595 0.96908801794
          0.15542900562 0.96908801794 0.1675529927 0.96908801794 0.17962700129 0.96908801794
          0.19162400067 0.96908801794 0.20355600119 0.96908801794 0.21534000337 0.96908801794
          0.22706699371 0.96908801794 0.23853300512 0.96908801794 0.25 0.96908801794
          0.26146700978 0.96908801794 0.27293300629 0.96908801794 0.28466001153 0.96908801794
          0.29644399881 0.96908801794 0.30837601423 0.96908801794 0.32037299871 0.96908801794
          0.3324469924 0.96908801794 0.34457099438 0.96908801794 0.35672700405 0.96908801794
          0.36890900135 0.96908801794 0.38109099865 0.96908801794 0.39327299595 0.96908801794
          0.40542900562 0.96908801794 0.4175530076 0.96908801794 0.42962700129 0.96908801794
          0.44162398577 0.96908801794 0.45355600119 0.96908801794 0.46533998847 0.96908801794
          0.47706699371 0.96908801794 0.48853299022 0.96908801794 0.5 0.96908801794
          0.51146697998 0.96908801794 0.52293300629 0.96908801794 0.53465998173 0.96908801794
          0.54644399881 0.96908801794 0.55837601423 0.96908801794 0.57037299871 0.96908801794
          0.5824469924 0.96908801794 0.59457099438 0.96908801794 0.60672700405 0.96908801794
          0.61890900135 0.96908801794 0.63109099865 0.96908801794 0.64327299595 0.96908801794
          0.65542900562 0.96908801794 0.6675530076 0.96908801794 0.67962700129 0.96908801794
          0.69162398577 0.96908801794 0.70355600119 0.96908801794 0.71534001827 0.96908801794
          0.72706699371 0.96908801794 0.73853302002 0.96908801794 0.75 0.96908801794
          0.76146697998 0.96908801794 0.77293300629 0.96908801794 0.78465998173 0.96908801794
          0.79644399881 0.96908801794 0.80837601423 0.96908801794 0.82037299871 0.96908801794
          0.83244800568 0.96908801794 0.84457099438 0.96908801794 0.85672700405 0.96908801794
          0.86890900135 0.96908801794 0.88109099865 0.96908801794 0.89327400923 0.96908801794
          0.90542900562 0.96908801794 0.9175530076 0.96908801794 0.92962801456 0.96908801794
          0.94162398577 0.96908801794 0.95355701447 0.96908801794 0.96534001827 0.96908801794
          0.97706699371 0.96908801794 0.98853397369 0.96908801794 1 0.96908801794
          0.011466999538 0.96598500013 0.022933000699 0.96598500013 0.034660000354 0.96598500013
          0.046443998814 0.96598500013 0.058375999331 0.96598500013 0.070372998714 0.96598500013
          0.082446999848 0.96598500013 0.094571001828 0.96598500013 0.1067269966 0.96598500013
          0.11890900135 0.96598500013 0.13109099865 0.96598500013 0.14327299595 0.96598500013
          0.15542900562 0.96598500013 0.1675529927 0.96598500013 0.17962700129 0.96598500013
          0.19162400067 0.96598500013 0.20355600119 0.96598500013 0.21534000337 0.96598500013
          0.22706699371 0.96598500013 0.23853300512 0.96598500013 0.25 0.96598500013
          0.26146700978 0.96598500013 0.27293300629 0.96598500013 0.28466001153 0.96598500013
          0.29644399881 0.96598500013 0.30837601423 0.96598500013 0.32037299871 0.96598500013
          0.3324469924 0.96598500013 0.34457099438 0.96598500013 0.35672700405 0.96598500013
          0.36890900135 0.96598500013 0.38109099865 0.96598500013 0.39327299595 0.96598500013
          0.40542900562 0.96598500013 0.4175530076 0.96598500013 0.42962700129 0.96598500013
          0.44162398577 0.96598500013 0.45355600119 0.96598500013 0.46533998847 0.96598500013
          0.47706699371 0.96598500013 0.48853299022 0.96598500013 0.5 0.96598500013
          0.51146697998 0.96598500013 0.52293300629 0.96598500013 0.53465998173 0.96598500013
          0.54644399881 0.96598500013 0.55837601423 0.96598500013 0.57037299871 0.96598500013
          0.5824469924 0.96598500013 0.59457099438 0.96598500013 0.60672700405 0.96598500013
          0.61890900135 0.96598500013 0.63109099865 0.96598500013 0.64327299595 0.96598500013
          0.65542900562 0.96598500013 0.6675530076 0.96598500013 0.67962700129 0.96598500013
          0.69162398577 0.96598500013 0.70355600119 0.96598500013 0.71534001827 0.96598500013
          0.72706699371 0.96598500013 0.73853302002 0.96598500013 0.75 0.96598500013
          0.76146697998 0.96598500013 0.77293300629 0.96598500013 0.78465998173 0.96598500013
          0.79644399881 0.96598500013 0.80837601423 0.96598500013 0.82037299871 0.96598500013