<?xml version="1.0"?>
<VTKFile type="UnstructuredGrid" version="0.1" byte_order="LittleEndian">
  <UnstructuredGrid>
    <Piece NumberOfPoints="5292" NumberOfCells="10580">
      <Points>
        <DataArray type="Float32" NumberOfComponents="3" format="ascii">
 -2.188145124507258e-01 9.760078157639546e-01 3.026147436365445e-02
 -1.977974412640136e-01 9.802428645600677e-01 5.275189508818719e-09
 -2.283395233480777e-01 9.735824615476472e-01 5.361594904041213e-09
 -1.829091081956038e-01 9.834871954242008e-01 3.424288394472508e-02
 -1.624537318529842e-01 9.867171249345463e-01 5.173696983767599e-09
 -2.075120756235273e-01 9.793986437169440e-01 6.530289325475468e-02
 -1.451277270271357e-01 9.898758372599125e-01 3.649940329573919e-02
 -1.244554867488866e-01 9.922257236748288e-01 5.060822998532522e-09
 -1.686641354755801e-01 9.872714797532616e-01 7.089617324517739e-02
 -1.949726437612386e-01 9.838167713807020e-01 1.030395313011472e-01
 -1.057420683255838e-01 9.949603006934672e-01 3.810284817404315e-02
 -8.476545242216081e-02 9.964013907929201e-01 4.938113340568822e-09
 -1.287538961396078e-01 9.936945064462234e-01 7.465134194068859e-02
 -1.540535674695102e-01 9.920063891028319e-01 1.094351738480774e-01
 -1.813889022600353e-01 9.893410503001825e-01 1.425996759897392e-01
 -6.514312982629310e-02 9.985466605953908e-01 3.936604122701716e-02
 -4.393081473293125e-02 9.990354752009549e-01 4.806127447352134e-09
 -8.785342199444064e-02 9.985703637619407e-01 7.748223488456944e-02
 -1.123998517287655e-01 9.985471818465870e-01 1.141838774410663e-01
 -1.388058703657963e-01 9.978870696880828e-01 1.494598589394102e-01
 -1.668334396946689e-01 9.960304755359306e-01 1.835371923337298e-01
 -2.368068574266267e-02 1.000496517136072e+00 4.042153890786420e-02
 -2.335691860276846e-03 9.999974101666280e-01 4.664955326362295e-09
 -4.614413868725916e-02 1.001794135375235e+00 7.977788164289162e-02
 -7.008006196277534e-02 1.003372908768658e+00 1.179446308071097e-01
 -9.565091132294756e-02 1.004650107171619e+00 1.548785583618924e-01
 -1.228062131188692e-01 1.005021541923679e+00 1.906768499945355e-01
 -1.513323112447097e-01 1.003893959431047e+00 2.255811166718001e-01
 1.834568324750389e-02 1.000715648095635e+00 4.133839448380592e-02
 3.971404123938357e-02 9.992113136396275e-01 4.514347059096867e-09
 -3.845305146867657e-03 1.003279446128311e+00 8.173080197039441e-02
 -2.721646080899571e-02 1.006419106700906e+00 1.210767449198859e-01
 -5.200485667938849e-02 1.009574414085795e+00 1.593325796144849e-01
 -7.828821964323415e-02 1.012129611828968e+00 1.965466940260922e-01
 -1.059870294520728e-01 1.013448956112477e+00 2.328743722197616e-01
 -1.348908467670442e-01 1.012879832859937e+00 2.685547611693274e-01
 6.067365451296162e-02 9.991508868254535e-01 4.215601574942501e-02
 8.195725849832686e-02 9.966365414041677e-01 4.353794446249989e-09
 3.881991608548718e-02 1.002966619609421e+00 8.344758250822233e-02
 1.603202101977082e-02 1.007632172268753e+00 1.237843443418436e-01
 -7.974709352883500e-03 1.012609507778538e+00 1.631267563570496e-01
 -3.336747870387748e-02 1.017295443210205e+00 2.015054236610228e-01
 -6.017765078346441e-02 1.021036037316979e+00 2.390344258748124e-01
 -8.830124849416086e-02 1.023140477008471e+00 2.759036229204633e-01
 -1.175027176255794e-01 1.022864734283975e+00 3.123460835581826e-01
 1.030677981348385e-01 9.957786844484128e-01 4.289705786881880e-02
 1.241617252487503e-01 9.922623857888623e-01 4.182612358921618e-09
 8.163564912595977e-02 1.000822594596184e+00 8.499000125196424e-02
 5.948914480222682e-02 1.006973062934839e+00 1.261884117342610e-01
 3.630606061939069e-02 1.013719177844333e+00 1.664526857240779e-01
 1.185196864858734e-02 1.020473428654220e+00 2.058062394347266e-01
 -1.399508274431392e-02 1.026588143145061e+00 2.443429328768350e-01
 -4.123050235640231e-02 1.031354046509149e+00 2.822262547225692e-01
 -6.971369567693440e-02 1.033994637367536e+00 3.196696508351129e-01
 -9.915091694455298e-02 1.033637201715355e+00 3.568954148881831e-01
 1.453127612370494e-01 9.906020824384684e-01 4.357292375286918e-02
 1.661164432402881e-01 9.861070718500043e-01 4.000347790884991e-09
 1.243961278008354e-01 9.968389947336492e-01 8.639218767840517e-02
 1.029728962595922e-01 1.004425333339189e+00 1.283594880034200e-01
 8.068654431985185e-02 1.012877358886414e+00 1.694298812414766e-01
 5.724719439118627e-02 1.021633432060165e+00 2.096194432195484e-01
 3.245694598613087e-02 1.030056955623054e+00 2.490111557292976e-01
 6.230509967120054e-03 1.037441555861985e+00 2.877534872008171e-01
 -2.138685180296055e-02 1.042997194846229e+00 3.260496118671999e-01
 -5.019590321875599e-02 1.045825558479855e+00 3.641281993831219e-01
 -7.980199709305293e-02 1.044872844842067e+00 4.021879644415254e-01
 1.872093652341826e-01 9.836487975730057e-01 4.418625404090019e-02
 2.076266027093195e-01 9.782088934737041e-01 3.807993385888079e-09
 1.669058631046468e-01 9.910289054026423e-01 8.766853641739786e-02
 1.463012701981479e-01 9.999880501603453e-01 1.303344269620630e-01
 1.250058161841797e-01 1.010074492177113e+00 1.721275633181866e-01
 1.026800629926131e-01 1.020751706895468e+00 2.130545279711886e-01
 7.905976670518858e-02 1.031405823470447e+00 2.531877629658677e-01
 5.397825866584452e-02 1.041344001342400e+00 2.926650698287246e-01
 2.738867926805076e-02 1.049779582751954e+00 3.316832659114740e-01
 -6.084733492140069e-04 1.055807674936315e+00 3.704779834624760e-01
 -2.972071980686017e-02 1.058347921651204e+00 4.092835691502420e-01
 -5.939064279018445e-02 1.056092397565928e+00 4.482430470719491e-01
 2.285721889569275e-01 9.749680406225127e-01 4.473221274110097e-02
 2.485117207244344e-01 9.686292118230329e-01 3.608910757857177e-09
 2.089794507887345e-01 9.834268545206998e-01 8.881725125813374e-02
 1.892957362921872e-01 9.936819815474703e-01 1.321231049804313e-01
 1.690980581725700e-01 1.005314764743340e+00 1.745771047378012e-01
 1.480012491454237e-01 1.017820063022443e+00 2.161717355053962e-01
 1.256807660407914e-01 1.030610035103650e+00 2.569670860449895e-01
 1.018953866384413e-01 1.043015244913377e+00 2.970893232960836e-01
 7.651043587654047e-02 1.054265844043233e+00 3.367279319283285e-01
 4.952728407378732e-02 1.063465531963770e+00 3.761228693250717e-01
 2.112796694931542e-02 1.069534673963043e+00 4.155368039869262e-01
 -8.249404185837477e-03 1.071134005445811e+00 4.551865338154487e-01
 -3.779209361143245e-02 1.066607164111707e+00 4.950865224530983e-01
 2.692279264687271e-01 9.646281563756127e-01 4.519916078859912e-02
 2.886039955380448e-01 9.574494475613347e-01 3.405260044260731e-09
 2.504408403546890e-01 9.740847333644832e-01 8.982239772947302e-02
 2.317817072681509e-01 9.855397724286720e-01 1.337135538077294e-01
 2.127953836639065e-01 9.986141797634585e-01 1.767785304527341e-01
 1.930532007082495e-01 1.012835785461491e+00 2.189918222423149e-01
 1.721753004175780e-01 1.027651428625866e+00 2.603964876677682e-01
 1.498506372700083e-01 1.042416966040584e+00 3.011052447542586e-01
 1.258613282477963e-01 1.056392031734221e+00 3.412955616360880e-01
 1.001108604194881e-01 1.068702276169305e+00 3.812056798821150e-01
 7.266767654230084e-02 1.078286742954989e+00 4.211167722279477e-01
 4.383838100528502e-02 1.083807476874160e+00 4.613062499332899e-01
 1.429126602361347e-02 1.083553874650163e+00 5.019201231466454e-01
 -1.476877021745425e-02 1.075431571442357e+00 5.426843298934440e-01
 3.090142426387865e-01 9.527154087092623e-01 4.556894916723506e-02
 3.277459227553551e-01 9.447660552272237e-01 3.189172457146263e-09
 2.911234548284513e-01 9.630731515495656e-01 9.065448986079536e-02
 2.735905345115238e-01 9.756132627453745e-01 1.350724338366627e-01
 2.559297876242784e-01 9.900016607515915e-01 1.787032850237083e-01
 2.376728226427290e-01 1.005808506052670e+00 2.214983517874457e-01
 2.183878942604834e-01 1.022516392502306e+00 2.634804904310026e-01
 1.976991044282979e-01 1.039516879098251e+00 3.047435612796152e-01
 1.753089978867380e-01 1.056102657020247e+00 3.454489992090677e-01
 1.510254570692978e-01 1.071431490598152e+00 3.858256853248170e-01
 1.248027984556134e-01 1.084475376387482e+00 4.261609308604544e-01
 9.680923939334535e-02 1.093928363719553e+00 4.667727793838147e-01
 6.754741651066182e-02 1.098073599746510e+00 5.079204816766966e-01
 3.805466559765514e-02 1.094675881808135e+00 5.495550032198115e-01
 1.010421526274198e-02 1.081217470691060e+00 5.907891508749199e-01
 3.477787938580369e-01 9.393331520406534e-01 4.581706762307632e-02
 3.657912246898593e-01 9.306978593264639e-01 2.944156422779381e-09
 3.308690457104258e-01 9.504768617993949e-01 9.127139906053669e-02
 3.145585313285336e-01 9.639651932173674e-01 1.361473064988455e-01
 2.983341551125372e-01 9.795176373992160e-01 1.802959878309620e-01
 2.816917872688742e-01 9.967524659634104e-01 2.236417233880338e-01
 2.641529164242393e-01 1.015195843765148e+00 2.661825679747999e-01
 2.452815206777987e-01 1.034280780570492e+00 3.079891425954971e-01
 2.247043582509119e-01 1.053338178630620e+00 3.492021357883032e-01
 2.021363634849900e-01 1.071567818695854e+00 3.900324531027510e-01
 1.774179362386523e-01 1.087985073955373e+00 4.307607928394644e-01
 1.505764399301914e-01 1.101331088770134e+00 4.717257830934239e-01
 1.219367518793877e-01 1.109926809727169e+00 5.132693152983300e-01
 9.232335392014730e-02 1.111489580468596e+00 5.555478137096695e-01
 6.335746497753490e-02 1.103132810531175e+00 5.980251300039936e-01
 3.748049844630903e-02 1.082354928980053e+00 6.386692245637664e-01
 3.853785747290391e-01 9.246032617800521e-01 4.591230384048711e-02
 4.025998715864731e-01 9.153769655479892e-01 2.666538658615499e-09
 3.695278516794197e-01 9.363963458794584e-01 9.161805268081984e-02
 3.545277856902380e-01 9.506713327852833e-01 1.368665273690010e-01
 3.398423457320841e-01 9.672111360544703e-01 1.814758735648759e-01
 3.249374638220757e-01 9.856895193624085e-01 2.253395421310055e-01
 3.092941690444003e-01 1.005682685510563e+00 2.684269550363152e-01
 2.924227762909121e-01 1.026672943121077e+00 3.107808974803037e-01
[...]
      <PointData>
        <DataArray type="Float32" Name="phi" format="ascii">
 8.357319503105032e-07
 -4.935424097185503e-08
 8.736780016116441e-07
 3.272635569206983e-07
 9.498160291609992e-07
 2.165750560001456e-07
 6.142925833563240e-07
 5.274519699893787e-07
 1.403269136446283e-07
 9.095123348901168e-07
 7.227328412406919e-07
 4.567491995732809e-07
 4.759375195062532e-07
 6.724351366838022e-07
 2.179774216681807e-07
 2.928610323138514e-07
 8.985965485042158e-07
 8.017289317985288e-07
 5.162458441843043e-07
 5.887395327919265e-07
 4.935736035438509e-07
 6.276991476594773e-07
 1.378982147359764e-07
 9.034539067975800e-07
 2.096728720646368e-07
 4.699713962441621e-08
 2.569769976812353e-07
 9.973583150468812e-07
 1.018004961439445e-07
 2.271884966820181e-07
 6.559819951679202e-07
 7.162552861927907e-08
 7.352690832851394e-07
 4.671636704145499e-07
 1.096475027440036e-07
 8.889395759492658e-07
 1.708888938134479e-07
 6.939413114137594e-07
 2.732726440690669e-07
 7.130431355362177e-07
 4.128634719657853e-07
 8.019598378705695e-07
 3.824111686201448e-07
 2.715617797299785e-07
 3.959400839415039e-07
 4.939965146943948e-07
 3.881340755462759e-07
 2.778455987506590e-08
 3.426440867704272e-07
 7.283455194517785e-07
 6.894207649210671e-09
 4.593731196544937e-07
 7.952104636999024e-07
 7.230021372706119e-07
 2.037881297045629e-07
 3.991141537262877e-07
 9.149336966940425e-07
 2.377623535831930e-07
 7.082992676821220e-07
 3.604702530912718e-07
 6.115689210606234e-07
 6.559725177490705e-07
 9.111146178630847e-07
 2.034972123032830e-07
 8.665366502125238e-08
 9.328899819305292e-07
 1.633831733238722e-07
 7.227118311581293e-07
 2.635323941291290e-07
 8.406166029928386e-08
 1.846243127268110e-07
 1.164832109656899e-07
 2.254341917584668e-07
 8.561717993460505e-07
 2.224730490940630e-07
 4.755480494944564e-07
 4.911916089422874e-07
 5.566318864724806e-07
 2.032883857916445e-07
 3.126671644926304e-07
 5.730266123826766e-07
 6.973395280107653e-07
 6.311427678262760e-07
 7.627226711326429e-07
 3.368737377940079e-07
 7.830306748557447e-07
 4.652226399670667e-07
 1.358391916728152e-07
 4.106335478315515e-07
 9.807975196451935e-07
 5.669523854834324e-07
 5.102758611208458e-07
 8.554380144243368e-07
 4.167175208236173e-07
 1.550044907983050e-07
 6.702786113921277e-07
 2.339499456383010e-07
 9.122254966964505e-07
 1.949597129291547e-07
 1.230696180520852e-07
 1.903120919743984e-07
 8.612402156993326e-07
 3.284274950887678e-07
 8.001915251520941e-07
 8.238048712083668e-07
 7.842372176103396e-07
 1.444961843510839e-07
 7.539023408886791e-07
 4.781497152661629e-07
 2.883702694411738e-07
 2.695030449917368e-07
 8.980976299310939e-07
 4.784550239333996e-07
 8.603922785344054e-07
 8.023514955768363e-07
 3.867493704179381e-07
 2.412325108558377e-07
 4.313391468446781e-07
 7.892292690492297e-07
 -2.157501001742723e-07
 5.283483109908005e-07
 8.627074847833427e-07
 7.145112769224582e-07
 7.831821057235899e-07
 3.661919805164615e-07
 6.069408953202071e-08
 5.304300806363571e-07
 6.039542127522779e-07
 4.016043670951319e-07
 4.690337723767257e-07
 6.800385419225563e-07
 8.026768094637760e-07
 4.392975400113741e-07
 7.435851056003528e-07
 5.805213404430631e-07
 -2.885941776664680e-07
 9.693627412987738e-07
 8.228286446643196e-07
 1.108930757220961e-07
 5.221890311268851e-07
 6.258310027984493e-07
 5.446696195177125e-07
 3.607244170034107e-07
 6.545981703354187e-07
 1.647522955838809e-07
 2.239022445227334e-07
 9.501220448182579e-07
 6.522516909912568e-07
 6.792217870366102e-07
 3.080137189748200e-07
 7.591622596114789e-07
 -3.774080515883682e-07
 -3.617787366350100e-07
 8.785522442877891e-07
 6.769998981415171e-07
 1.903019828386476e-07
 4.081581957970926e-07
 7.280318681246456e-09
 7.320032852087266e-07
 1.337398025658132e-08
 2.926976788719671e-07
 1.556748503439565e-07
 9.558131138787118e-07
 9.588219734846248e-07
 5.207057350853361e-07
 8.811964677946094e-07
 1.226387400521389e-07
 6.779801243750327e-07
 -2.615433666863787e-07
 -9.760654146040437e-07
 -1.439316844598082e-07
 7.926477991748726e-07
 8.973635057252238e-07
 9.344998259663839e-07
 5.706702316254919e-07
 7.766052283475489e-07
 2.767970705974676e-07
 8.320730990885039e-07
 2.705880459696886e-07
 2.436548885986767e-07
 8.126594873703041e-07
 6.707554045526365e-08
 9.611546802901216e-08
 4.262907120633486e-07
 2.096933894302211e-07
 6.875393131489105e-07
 9.111584701182451e-07
 -9.563348488672574e-07
 -2.872983097534920e-07
 -1.361559709422977e-07
 2.434775381310317e-08
 3.592481911951495e-08
 7.620696425014728e-07
 5.228712163241056e-07
 8.145081640265062e-07
 9.653257174724317e-07
 5.113605049400505e-07
 2.012184010524720e-07
 2.930349030094703e-07
 9.167793801889701e-08
 5.899669143216713e-07
 4.912395952239024e-07
 7.401970434361971e-07
 6.884918641869575e-07
 4.242842815971315e-07
 3.368032253092679e-07
 -1.748755357189324e-08
 -5.200525360349317e-07
 -5.807394590218173e-07
 -9.670917460180561e-07
 5.494785801918312e-07
 7.621672782898159e-07
 2.416041011699122e-07
 1.297656072596354e-07
 7.320515894582158e-07
 4.783104667893667e-07
 4.730686485876490e-07
 8.834568288040856e-08
 9.349830746296917e-07
 3.104221953931230e-07
 3.045004792756600e-07
 3.208781063079869e-07
 1.301996604974320e-07
 2.093633961752772e-07
 3.662536289805729e-07
 4.799796989862770e-07
 -4.084448889107861e-07
 -6.417864390484418e-07
 -7.656331610927936e-07
 -4.122705682396699e-07
 -8.825445072524474e-07
 -3.402611162828251e-07
 -6.800694452024914e-10
 -1.103450809614159e-07
 2.066130908584540e-07
 4.473065262633469e-07
 6.659085132199039e-07
 1.042598039013853e-07
 7.521939473509320e-07
 3.118335175633646e-07
 9.611882828552964e-07
 1.002860445797893e-07
 8.820582175772529e-07
 3.006018800544297e-08
 5.437524176477027e-07
 7.541347916140140e-07
 8.945851033281826e-07
 -6.547712808613326e-07
 -4.183011983460716e-07
 -4.660521815691432e-07
 -8.539633349347042e-07
 -6.333879027931033e-07
 2.115983220862816e-07
 -1.739299371195102e-08
 -8.191362776965860e-07
 -1.429341187075828e-07
 -8.849316146530839e-08
 4.084676473725679e-07
 4.979671452964851e-07
 7.803791501892476e-08
 1.984242301578121e-07
 4.683337498923024e-07
 1.836812235644913e-07
 4.616939649482177e-07
 8.682848136043475e-07
 1.948848893373878e-08
 9.646678460484281e-07
 2.879709881664638e-08
 6.411568109765398e-07
 3.426822172691857e-07
 -4.629855556714801e-07
 -6.914350325071261e-07
 -5.951239530621599e-07
 -5.505853726273102e-07
 -7.843250146022385e-07
 2.306206450253256e-07
 -3.393037102950025e-07
 9.475888771426355e-07
 -9.694077034994031e-07
 -5.139697961675793e-07
 8.445910413268365e-07
 3.540088879816494e-07
 7.041640537330807e-08
 4.512129034850432e-07
 8.605915668979947e-07
 2.646347442292196e-07
 9.835632820420770e-07
 3.360477707214926e-07
 7.149001816086908e-07
 9.720534891455301e-07
 6.416665688790957e-07
 3.618073047828574e-07
 1.228632603433866e-07
 -8.750883907504559e-07
 -3.506599932645571e-07
 -8.380444351807625e-07
 -4.842495349155485e-07
 -6.795900990841375e-07
 -7.507079698987340e-07
 -7.880175199037609e-07
 8.809373224227812e-07
 8.223109421168218e-07
 6.633093057040185e-07
 5.344926351513735e-07
 4.158996962377870e-07
 2.795775821962110e-08
 1.097976777275633e-07
 4.308686295528830e-07
 2.510701566649232e-07
 4.972229470379119e-07
 7.411026601289450e-07
 6.094880845575190e-07
 4.424718164086627e-07
 8.330701456449319e-07
 5.423121409720011e-07
 7.839629021511030e-07
 1.797595510222294e-07
 6.145237536614445e-07
 3.278483045043856e-07
 3.966295918367280e-07
 8.732559102497817e-07
 6.573931028430735e-07
 2.919329380457469e-07
 8.634149624153764e-07
 2.946966964900710e-07
 9.464258821090255e-07
 2.069437607943314e-07
 7.833409356727827e-07
 4.993039707246183e-07
 -6.772678027289203e-07
 8.534408313387587e-08
 4.873659024129395e-07
 6.162003841625463e-07
 4.617656502725609e-07
 5.764396726615217e-08
 4.137276767846032e-07
 8.152780406334159e-08
 -9.626075377910936e-07
 3.976329844279647e-07
 3.930204135471627e-07
 7.290198210663235e-07
 1.054290420521298e-07
 8.841157133065991e-07
 6.665331558908250e-07
 3.084226448679672e-07
 -8.451406923182248e-07
 -1.132795827141209e-07
 8.093988079771464e-08
 2.649191629400249e-07
 6.309291920025828e-07
 5.009681300904845e-07
 7.497311135251650e-07
 1.125243922484032e-07
 8.930664895379081e-07
 4.542288530862137e-07
 -5.205490454240902e-07
 -4.921555363246455e-08
 -1.770517376598058e-07
 -8.058090149587471e-07
 2.081375125584373e-07
 8.289804196426331e-07
 1.348913315490918e-07
 4.637791083395015e-07
 2.974891472051766e-07
 7.000931580014580e-07
 1.388732461249376e-07
 -3.535974253399132e-07
 -7.707851120697384e-07
 -8.455799578310774e-07
 -8.312289140888218e-07
 -4.778704925656463e-07
 5.976856864986502e-08
 4.126813565319409e-07
 9.228516750781068e-07
 7.712700023088104e-07
 5.032500342005974e-07
 7.340544329048626e-07
 4.154512720511150e-07
 -5.786861533851884e-07
 -4.960875366055717e-08
 -3.162723570815373e-07
 -5.387667465495127e-07
 -2.565625106809577e-07
 -6.368868800121774e-07
 4.062889998879271e-07
 3.878389521760894e-07
 9.895455492792138e-07
 1.345053624035586e-07
 9.342287331515209e-07
 9.013068982266503e-07
 3.897413155540264e-07
 -3.257376523513322e-07
 -3.534834973617507e-07
 -1.601619968871759e-07
 -6.125956013569578e-07
 -4.624965299626638e-07
 -4.017306384218600e-07
 -8.403240722154592e-07
 -2.523826714284638e-08
 4.999830871543764e-08
 4.140383089712429e-07
 5.649841489097085e-07
 6.955891452831153e-07
 2.766600168957467e-07
 9.617229742575617e-07
 -5.670925767309321e-07
 -4.092761226037744e-07
 -8.121440030484095e-07
 -9.458395160977240e-07
 -8.951012000490977e-07
 -4.990060137322061e-08
 -4.939086175048679e-07
 -7.856311983189812e-07
 4.311514383292803e-07
 6.635666689458475e-07
 5.432802900884326e-07
 7.989713466383108e-07
 2.070796545350362e-07
 9.415380941568685e-08
 3.653817041149310e-07
 -4.593396004115569e-07
 -6.097360945589436e-07
 -9.071090267820381e-07
 -2.243829352321924e-07
 -6.271207965702352e-07
 -9.329966856874705e-07
 -5.193391683366855e-08
 -6.906939387096855e-08
 -1.816509165308844e-09
 6.611911850251673e-07
 1.138824545776629e-07
 9.759950192478328e-07
 9.530936754265085e-07
 4.605968916271408e-07
 9.735736722360500e-07
 7.061757241189071e-07
 -6.971139756561939e-07
 -5.543424552723053e-09
 -1.311545699822503e-08
 -4.951776833017618e-07
 -6.084749848422888e-08
 -3.854242665024543e-07
 -5.445340256482467e-07
 -2.207949358901118e-07
 -9.776348925960576e-07
 -4.995771640259328e-07
 2.058439518837218e-07
 6.666603724614362e-08
 4.219112473835551e-07
 3.016861731541809e-07
 4.851090671387226e-07
 -1.730531232757571e-07
 -5.352587787443852e-07
 -3.505681098747715e-07
 -2.827987832798584e-07
 -7.741042141740095e-07
 -4.818164817677051e-07
 -8.417560083406883e-07
 -8.889407446810438e-07
 -5.647828106303265e-07
 -3.130061191347622e-07
 -2.342342133032638e-07
 -9.996729977146401e-08
 7.948880602626218e-07
 2.234524616451239e-07
 2.739128642792465e-07
 -7.040894881016335e-07
 -8.385675454025687e-08
 -8.692769689622182e-07
 -3.366344298871837e-07
 -2.091071459320304e-07
 -6.763027727840765e-07
 -9.283788289793371e-07
 -2.883549399257390e-07
 -1.010230101794463e-07
 -7.188994487483669e-07
 -3.237518171328446e-07
 -6.560886562922974e-07
 -8.069800634391555e-07
 -6.432738066664001e-07
 -9.353203729856041e-07
 8.576632458678901e-07
 7.921558009549301e-07
 -8.577751207106132e-07
 -5.629478322388692e-08
 -1.282595614160442e-07
 -7.205565691337235e-07
 -7.723712404095195e-07
 -7.904945220627013e-08
 -5.228400334900130e-08
 -2.807171840535361e-07
 -5.811299264024683e-08
 -5.575283092973393e-07
 -9.247348884411366e-07
 -4.779334030757809e-07
 -7.541648496811604e-07
 -8.182448664739717e-07
 -8.667170143250580e-07
 -3.559033645572640e-07
 3.494537992310143e-12
 6.214713802465965e-07
 8.814862879624741e-07
 -1.377773389821257e-07
 -6.147166087266953e-08
 -4.639185774424348e-07
 -5.462079094020744e-07
 -2.104980746930885e-07
 -3.491738563843327e-07
 -5.630353552832368e-07
 -7.704258760954374e-07
 -4.482906806324571e-07
 8.169965037829741e-09
 -3.345145763722357e-07
 -6.913094741101133e-08
 -8.335460830455332e-07
 -6.245486954270518e-07
 -1.372398242827089e-07
 6.798573605193425e-07
 4.890434144311229e-07
 3.783047830552277e-07
 8.515892819804805e-07
 -5.978421206975781e-07
 -6.053578860409914e-09
 -2.386109779206613e-07
 -7.682012714838038e-08
 -6.826295400608196e-07
 -5.840284030833587e-07
 -2.707797097101228e-07
 -2.685677503166950e-07
 -6.743640231232639e-07
 -4.837714536187754e-07
 -2.094617402859100e-07
 2.903591802549954e-07
 -3.309798560224841e-07
 -2.810231225502946e-08
 -9.661689848172728e-07
 -9.005468026845875e-08
 2.046356545326589e-07
 8.587708050233900e-07
 9.765694358732091e-07
 1.680887906641004e-08
 -1.123372822542379e-08
 -4.828728955574846e-07
 -2.948614448161635e-07
 -6.861808863889429e-07
 -3.104106163775988e-07
 -7.911130959215029e-07
 -6.607909858180605e-08
 -5.584317503970482e-07
 -1.560837575853569e-07
 -8.296673097984986e-07
 -4.152602639528880e-08
 -1.130312128339028e-07
 -1.308527486365563e-08
 -4.602352592364412e-07
 -5.207032495180286e-07
 -3.150446009070329e-07
 -9.779629084327723e-08
 5.834864734710621e-07
 9.952997404027997e-07
 3.659736667049884e-07
 2.276170707471437e-07
 6.734329287549912e-07
 -6.906275008544682e-07
 -5.084738539107292e-07
 -8.507003343982689e-07
 -9.135824635131407e-07
 -5.010234164215532e-07
 -7.194257189979680e-08
 -3.481250853143436e-07
 -7.189691286213495e-07
 -9.811745978471897e-07
 -6.464269683426060e-07
 -3.932411980489547e-07
 -8.909325633910115e-07
 -6.344300615968024e-07
 8.809374032470174e-07
 3.831007748811288e-07
 6.633093113661559e-07
 4.370633583938854e-07
 4.158997172210022e-07
 4.370633541750379e-07
 3.530556114128558e-07
 4.308686334386636e-07
 5.958459874388922e-07
 3.530555775510535e-07
 4.167112849229326e-07
 6.094879130280617e-07
 8.292820788957656e-07
 8.292820893318620e-07
 4.167113210051809e-07
 8.983914017157701e-07
 1.797595887698122e-07
 4.801246029639827e-07
 8.992632580806514e-07
 4.801238812079944e-07
 8.983929424832837e-07
 3.704199514897866e-07
 2.919315201799222e-07
 6.909549413736116e-07
 9.022865844476868e-07
 9.022221107990447e-07
 6.909901427709642e-07
 3.704208427768307e-07
 -3.334072032901148e-07
 -6.772874900917714e-07
 -9.780243788726217e-07
 -6.776342628134202e-07
 -9.667211070540915e-07
 -6.776329088409305e-07
 -9.780235963319228e-07
 -3.334037310120941e-07
 -4.740991738083622e-07
 -9.626074520263650e-07
 -9.545249138875889e-07
 -9.842628106992990e-08
 -7.422960108804944e-07
 -7.422959707459320e-07
 -9.842618992061958e-08
 -9.545249937126243e-07
 -4.740994163365819e-07
 -5.424522588892700e-07
 -1.132799009595509e-07
 -7.858546159922319e-07
 -9.974212063501575e-07
 -1.395095537981561e-07
 -1.789671144614147e-07
 -1.395094806344588e-07
 -9.974209827512404e-07
 -7.858541693495091e-07
 -5.424489044059122e-07
 -9.726713350310945e-07
 -4.921581847616707e-08
 -8.034027948466971e-07
 -1.621912648630541e-08
 -1.337003095458478e-07
 -7.202335696177009e-07
 -7.202335647327196e-07
 -1.337002629164807e-07
 -1.621905987292394e-08
 -8.032217845288514e-07
 -9.726710638036096e-07
 -3.204977143678178e-07
 -7.707855577132605e-07
 -6.155835071686155e-07
 -8.222210776676064e-07
 -5.149269504678422e-07
 -9.873993129239089e-07
 -7.388079376613454e-07
 -9.873992318221170e-07
 -5.149270690951724e-07
 -8.222233648935706e-07
 -6.155855850065173e-07
 -3.204975780879415e-07
 -3.114337245868626e-07
 -4.960897570516209e-08
 -5.838414079972765e-08
 -7.195290681050182e-07
 -8.846697368003476e-07
 -2.313620195426580e-07
 -6.376265874186160e-07
 -6.376266256657992e-07
 -2.313619477112283e-07
 -8.846697086006827e-07
 -7.195290021577705e-07
 -5.838393407620046e-08
 -3.114336026288633e-07
 -9.021239746886955e-07
 -3.534837014207426e-07
 -2.814494553526892e-07
 -2.971315562483312e-07
 -9.879551534641706e-07
 -6.416161226763251e-07
 -3.760695205801134e-07
 -5.898393160563842e-07
 -3.760695239107825e-07
 -6.416162354749844e-07
 -9.879550257330116e-07
 -2.971314225219679e-07
 -2.814492359726195e-07
 -9.021236325734705e-07
 -8.516026805960308e-08
 -4.092765011343147e-07
 -6.132031998284937e-07
 -1.186654647322705e-07
 -3.551410928115395e-07
 -6.504776163818171e-07
 -3.017869347754498e-07
 -2.808205087911908e-07
 -2.808205022963861e-07
 -3.017869166788145e-07
 -6.504777634863679e-07
 -3.551410794888632e-07
 -1.186653018070416e-07
 -6.132031124539417e-07
 -8.515986138490916e-08
 -1.032076574203344e-08
 -6.097375428448792e-07
 -4.189376556773539e-07
 -7.043225033198652e-07
 -1.618746122700188e-07
 -3.104101149453697e-07
 -3.269392179205965e-08
 -8.842785392260133e-07
 -4.415380484568132e-07
 -8.842785528262453e-07
 -3.269388448856603e-08
 -3.104101045092733e-07
 -1.618745187892401e-07
 -7.043224271585657e-07
 -4.189375749641400e-07
 -1.032083929430883e-08
 -9.388981914160155e-07
 -5.543322356693636e-09
 -4.990413637884217e-08
 -1.802223801861125e-07
 -6.483884482100244e-07
 -2.464449858075035e-07
 -7.572891224660872e-07
 -3.316793102947635e-07
 -3.733048553611340e-08
 -3.733047992948713e-08
 -3.316793252827743e-07
 -7.572892254392727e-07
 -2.464449631589538e-07
 -6.483885617303287e-07
 -1.802223182911789e-07
 -4.990401003546197e-08
 -9.388978906010870e-07
 -2.120286105022906e-07
 -2.827986977926855e-07
 -5.909935251180443e-07
 -8.386824170147911e-07
 -3.307012982900481e-07
 -4.774574624555328e-08
 -3.166605755389185e-09
 -3.119499903392331e-07
 -6.213671659982545e-07
 -3.644250332612842e-07
 -6.213672080201960e-07
 -3.119488856673236e-07
 -3.166587991820791e-09
 -4.774551487507495e-08
 -3.307037193533979e-07
 -8.386825093298356e-07
 -5.909935102410557e-07
 -2.120286642370850e-07
 -5.576267529394663e-07
 -9.283793852565836e-07
 -4.701688365305046e-07
 -2.163703328728062e-07
 -9.914418714340734e-07
 -1.209614318709029e-07
 -7.451025879623430e-08
 -5.820636357900533e-07
 -5.049939437729023e-07
 -6.960355803942164e-07
 -6.960356037088999e-07
 -5.049958813341249e-07
 -5.817024526511005e-07
 -7.451020950233200e-08
 -1.206415186083554e-07
 -9.914417281597920e-07
 -2.163703286539587e-07
 -4.701689968467093e-07
 -5.576265320050844e-07
 -1.425766190665811e-07
 -5.811297842939211e-08
 -4.934814838986057e-07
 -3.010696544292202e-07
 -5.438837190618884e-07
 -4.093389973647277e-07
 -8.555288033562647e-07
 -8.415062506261783e-07
 -3.005705653258417e-07
 -6.134105734467710e-08
 -4.325681699501871e-07
 -6.134104763022563e-08
 -3.001974249183803e-07
 -8.415057276001114e-07
 -8.555280222033446e-07
 -4.093368642377193e-07
 -5.438838549531866e-07
 -3.010697200989121e-07
 -4.934816382196061e-07
 -1.425767866547467e-07
 -3.921308633358933e-07
 8.169930509893675e-09
 -9.743568357700738e-07
 -4.408051351711961e-07
 -2.415392058585653e-07
 -2.348418084441306e-07
 -1.941757949430745e-07
 -1.020764150982956e-07
 -9.420647689162287e-07
 -1.920234473651306e-07
 -9.046385063826712e-07
 -9.046385048838701e-07
 -1.920241968211833e-07
 -9.420646854274572e-07
 -1.020764111570038e-07
 -1.941758349111034e-07
 -2.348419009812197e-07
 -2.415393045573921e-07
 -4.408052482474112e-07
 -9.743566470321596e-07
 -3.921307102916494e-07
 -7.252472109531283e-07
 2.903595059944308e-07
 -5.356653537957889e-07
 -6.034978894953191e-07
 -1.049410469633472e-07
 -5.538733939824958e-07
 -5.532486593295971e-07
 -6.458765942074507e-07
 -6.589656255662213e-07
 -1.997264458819537e-07
 -2.277107483128482e-07
 -4.658527636425269e-07
 -2.277107608583684e-07
 -1.997264708064606e-07
 -6.589656879052441e-07
 -6.458766704242613e-07
 -5.532487435955247e-07
 -5.538734864640737e-07
 -1.049410859321753e-07
 -6.034980343794238e-07
 -5.356655096711016e-07
 -7.252464374607470e-07
 -3.198263376913424e-07
 -4.602348250282162e-07
 -1.404538916838227e-07
 -4.067400458107606e-07
 -2.451334011333017e-07
 -1.561271744110471e-07
 -6.901793895841557e-07
 -4.591344106019690e-07
 -9.438547011741960e-07
 -8.788612003707286e-07
 -3.032036642869329e-07
 -9.421861849601143e-07
 -9.421861754121963e-07
 -3.032037096395435e-07
 -8.788611638443911e-07
 -9.438547078910453e-07
 -4.591344944238074e-07