<?xml version="1.0"?>
<VTKFile type="UnstructuredGrid" version="0.1" byte_order="LittleEndian">
  <UnstructuredGrid>
    <Piece NumberOfPoints="194" NumberOfCells="384">
      <Points>
        <DataArray type="Float32" NumberOfComponents="3" format="ascii">
 -5.355385098005928e-01 7.963189355184968e-01 -3.353102632596910e-01
 1.000000000000000e+00 1.000000000000000e+00 -1.000000000000000e+00
 1.000000000000000e+00 1.000000000000000e+00 1.000000000000000e+00
 -5.355385098005928e-01 7.963189355184968e-01 3.353102632596910e-01
 -6.826095914145849e-01 -6.826095914145849e-01 -1.344503447159320e-01
 7.963189355184969e-01 -5.355385098005928e-01 -3.353102632596910e-01
 7.963189355184969e-01 -5.355385098005928e-01 3.353102632596910e-01
 -6.826095914145849e-01 -6.826095914145849e-01 1.344503447159320e-01
 2.516121768280247e-01 1.025833235818618e+00 -2.886143724295086e-01
 -9.472947700542164e-01 8.702584036931819e-02 -1.846269513423071e-01
 -5.580571152540338e-01 8.298029737265465e-01 -4.440892098500626e-20
 1.283344878310173e-01 1.283344878310173e-01 -7.643699138032994e-01
 1.660598025335075e-01 1.064980849001699e+00 -7.714530089540849e-01
 -1.705928379597159e-01 1.008334424036870e+00 -3.066857439437009e-01
 1.283344878310173e-01 1.283344878310173e-01 7.643699138032994e-01
 1.660598025335075e-01 1.064980849001699e+00 7.714530089540849e-01
 -1.540392090891338e-01 9.882325460252348e-01 2.229177261488382e-02
 -1.655891324910460e-01 9.922422570448036e-01 -1.395520448116266e-01
 -7.942076630234486e-01 6.214450974045529e-02 -3.657263275327539e-01
 -7.930439631261811e-01 4.656207063349228e-01 -2.908299965820826e-01
 -5.543326784237664e-01 8.233488309037380e-01 -1.689294833802909e-01
 -3.691908036095286e-01 9.303043224233085e-01 -1.533133355765985e-01
 1.025833235818618e+00 2.516121768280246e-01 2.886143724295087e-01
 7.071067811873449e-01 7.071067811873449e-01 -7.771561172376096e-20
 6.544163374647716e-01 1.096724866061935e+00 -5.918125059505244e-01
 2.017869760866131e-01 1.118645794080458e+00 -5.109840821128101e-01
 3.929258466128829e-02 1.040558645902983e+00 -2.919269400625942e-01
 -2.775889816149390e-01 4.918025497381911e-01 -6.766851091471366e-01
 -2.036358800754401e-01 9.547203062505883e-01 -5.689811166898474e-01
 -3.662079740194079e-01 9.253594758137087e-01 -3.239014060118598e-01
 -7.942076630234486e-01 6.214450974045529e-02 3.657263275327539e-01
 -8.532518003469898e-01 5.069908290776083e-01 9.341440791131775e-02
 -5.543326784237664e-01 8.233488309037380e-01 1.689294833802909e-01
 -3.647129408110345e-01 9.311288531467121e-01 1.111737364155109e-02
 -2.775889816149390e-01 4.918025497381911e-01 6.766851091471366e-01
 -2.036358800754401e-01 9.547203062505883e-01 5.689811166898474e-01
 -3.627198515275515e-01 9.332204544622776e-01 1.790903393949568e-01
 5.964236985818361e-01 9.606966345670171e-01 3.928519617830331e-01
 2.049626610764080e-01 1.020002505910051e+00 2.493435754483577e-01
 4.882670232612669e-02 1.008314125237319e+00 -1.329818231095964e-01
 1.064980849001700e+00 1.660598025335075e-01 -7.714530089540846e-01
 5.596350973617199e-01 5.596350973617199e-01 -9.172317044034308e-01
 5.704672019028698e-01 1.050007268701410e+00 -9.361061148755879e-01
 4.002647698082550e-01 1.189547976893099e+00 -6.696601020536612e-01
 4.917813021079757e-01 8.893793141658088e-01 -1.380171217720378e-01
 4.514462282470040e-01 1.056031474298896e+00 -4.435511662509848e-01
 9.606966345670171e-01 5.964236985818361e-01 -3.928519617830330e-01
 8.587717749053960e-01 8.587717749053960e-01 -4.938863176827148e-01
 8.776557456956249e-01 1.160023461792878e+00 -7.660127647004976e-01
 -1.713062441310157e-02 1.074535167518459e+00 -5.416556894809738e-01
 1.064980849001700e+00 1.660598025335075e-01 7.714530089540846e-01
 1.096724866061935e+00 6.544163374647716e-01 5.918125059505245e-01
 8.587717749053960e-01 8.587717749053960e-01 4.938863176827148e-01
 6.389062723602642e-01 8.172229657963539e-01 2.039126124838160e-01
 3.938174259486969e-01 9.222558900331552e-01 5.895192615922866e-02
 5.596350973617199e-01 5.596350973617199e-01 9.172317044034308e-01
 5.704672019028698e-01 1.050007268701410e+00 9.361061148755879e-01
 8.402730606627734e-01 1.047899261255969e+00 6.417232920819460e-01
 6.568118267885871e-01 8.690320692928254e-01 -3.176122990975173e-01
 1.263577416614356e-04 1.060329064108136e+00 3.901880477376155e-01
 3.875260048932215e-01 1.129008176355484e+00 5.422019731489588e-01
 8.893793141658088e-01 4.917813021079757e-01 1.380171217720378e-01
 8.172229657963539e-01 6.389062723602642e-01 -2.039126124838159e-01
 8.702584036931828e-02 -9.472947700542164e-01 1.846269513423071e-01
 8.298029737265467e-01 -5.580571152540337e-01 2.220446049250313e-20
 9.882325460252348e-01 -1.540392090891338e-01 -2.229177261488374e-02
 1.020002505910051e+00 2.049626610764080e-01 -2.493435754483575e-01
 9.222558900331552e-01 3.938174259486969e-01 -5.895192615922857e-02
 1.050007268701410e+00 5.704672019028697e-01 -9.361061148755878e-01
 1.047899261255969e+00 8.402730606627734e-01 -6.417232920819460e-01
 8.690320692928255e-01 6.568118267885872e-01 3.176122990975173e-01
 1.050007268701410e+00 5.704672019028697e-01 9.361061148755878e-01
 1.160023461792878e+00 8.776557456956248e-01 7.660127647004978e-01
 1.008334424036870e+00 -1.705928379597159e-01 3.066857439437009e-01
 1.118645794080458e+00 2.017869760866131e-01 5.109840821128101e-01
 1.056031474298896e+00 4.514462282470040e-01 4.435511662509850e-01
 6.214450974045538e-02 -7.942076630234486e-01 -3.657263275327539e-01
 4.918025497381912e-01 -2.775889816149390e-01 -6.766851091471366e-01
 9.547203062505885e-01 -2.036358800754401e-01 -5.689811166898472e-01
 1.060329064108136e+00 1.263577416613783e-04 -3.901880477376153e-01
 9.922422570448036e-01 -1.655891324910460e-01 1.395520448116267e-01
 1.008314125237319e+00 4.882670232612665e-02 1.329818231095965e-01
 5.069908290776084e-01 -8.532518003469897e-01 -9.341440791131773e-02
 8.233488309037380e-01 -5.543326784237663e-01 -1.689294833802908e-01
 9.332204544622776e-01 -3.627198515275515e-01 -1.790903393949568e-01
 1.129008176355484e+00 3.875260048932215e-01 -5.422019731489588e-01
 6.214450974045538e-02 -7.942076630234486e-01 3.657263275327539e-01
 4.656207063349229e-01 -7.930439631261810e-01 2.908299965820825e-01
 8.233488309037380e-01 -5.543326784237663e-01 1.689294833802908e-01
 9.303043224233085e-01 -3.691908036095285e-01 1.533133355765985e-01
 1.040558645902983e+00 3.929258466128826e-02 2.919269400625942e-01
 4.918025497381912e-01 -2.775889816149390e-01 6.766851091471366e-01
 9.547203062505885e-01 -2.036358800754401e-01 5.689811166898472e-01
 9.253594758137087e-01 -3.662079740194079e-01 3.239014060118598e-01
 9.311288531467121e-01 -3.647129408110344e-01 -1.111737364155105e-02
 1.189547976893098e+00 4.002647698082550e-01 6.696601020536610e-01
 1.074535167518459e+00 -1.713062441310164e-02 5.416556894809736e-01
 5.135779806512600e-01 -8.459363094209836e-01 1.105122304810497e-01
 6.867582415924024e-01 -7.251627896197422e-01 -4.810154264723670e-02
 -7.071069177314243e-01 -7.071069177314243e-01 -1.526556658859590e-20
 -3.424344917904903e-01 -9.369740160400937e-01 3.678152555942308e-02
 8.262582820198636e-02 -9.765144606004789e-01 -1.185763051934446e-01
 3.122504422133275e-01 -9.469048057778934e-01 5.081350245906936e-02
 4.490717402455577e-01 -7.153900273920832e-01 -3.942561294044880e-01
 6.634910597114667e-01 -7.088613658436129e-01 -2.196780884198697e-01
 6.816848139744046e-01 -7.133177270971781e-01 1.543984002174986e-01
 4.490717402455577e-01 -7.153900273920832e-01 3.942561294044880e-01
 6.400088791070657e-01 -6.772177503358013e-01 3.208121890124470e-01
 -3.204530567403528e-01 -8.739680025384612e-01 1.962536154927287e-01
 7.457516659187725e-02 -8.794497972192344e-01 2.824965377213222e-01
 2.795204070251565e-01 -8.836440794350551e-01 2.460687532088300e-01
 -3.094836512885837e-01 -3.094836512885837e-01 -5.361137599710489e-01
 -3.286468468849325e-01 -7.780627658486935e-01 -2.910736523097897e-01
 -1.508623025353575e-01 -9.230020622918198e-01 -1.971039206444423e-01
 -3.419992092392560e-01 -9.111125494534216e-01 1.223222644244129e-01
 -1.314329232221448e-01 -9.675661429725465e-01 1.200968017382868e-01
 -8.739680025384611e-01 -3.204530567403529e-01 -1.962536154927287e-01
 -7.006003947360999e-01 -7.006003947360999e-01 -6.932086408466100e-02
 -5.317234411056779e-01 -8.400790059775314e-01 -5.547106224256727e-02
 2.972662843810197e-01 -8.715647329421965e-01 -2.581018454096458e-01
 -9.369740160400937e-01 -3.424344917904904e-01 -3.678152555942313e-02
 -7.006003947360999e-01 -7.006003947360999e-01 6.932086408466100e-02
 -5.324023094512965e-01 -8.190078338440484e-01 1.108191451297568e-01
 -1.192575388877170e-01 -9.263833539658288e-01 2.005685006612224e-01
 -3.094836512885837e-01 -3.094836512885837e-01 5.361137599710489e-01
 -3.286468468849325e-01 -7.780627658486935e-01 2.910736523097897e-01
 -5.103239267584332e-01 -7.916830905439095e-01 1.754279987476574e-01
 -5.376769902331946e-01 -8.422531492640047e-01 2.005916889789910e-02
 2.666932311214987e-01 -8.098265596215806e-01 3.429581663551580e-01
 -1.317898502354595e-01 -8.456564021199103e-01 2.925247583667760e-01
 -9.111125494534216e-01 -3.419992092392560e-01 -1.223222644244129e-01
 -8.190078338440484e-01 -5.324023094512965e-01 -1.108191451297568e-01
 -8.794497972192344e-01 7.457516659187717e-02 -2.824965377213222e-01
 -9.263833539658287e-01 -1.192575388877170e-01 -2.005685006612224e-01
 -7.780627658486935e-01 -3.286468468849325e-01 -2.910736523097897e-01
 -7.916830905439095e-01 -5.103239267584333e-01 -1.754279987476575e-01
 -8.422531492640047e-01 -5.376769902331946e-01 -2.005916889789913e-02
 -7.780627658486935e-01 -3.286468468849325e-01 2.910736523097897e-01
 -8.400790059775314e-01 -5.317234411056780e-01 5.547106224256723e-02
 -9.765144606004789e-01 8.262582820198626e-02 1.185763051934446e-01
 -9.675661429725464e-01 -1.314329232221448e-01 -1.200968017382869e-01
 -7.153900273920832e-01 4.490717402455576e-01 -3.942561294044880e-01
 -8.098265596215806e-01 2.666932311214986e-01 -3.429581663551580e-01
 -8.459363094209837e-01 5.135779806512599e-01 -1.105122304810497e-01
 -8.836440794350551e-01 2.795204070251564e-01 -2.460687532088301e-01
 -6.772177503358013e-01 6.400088791070656e-01 -3.208121890124471e-01
 -8.456564021199103e-01 -1.317898502354596e-01 -2.925247583667760e-01
 -7.251627896197423e-01 6.867582415924023e-01 4.810154264723671e-02
 -9.469048057778934e-01 3.122504422133274e-01 -5.081350245906938e-02
 -7.153900273920832e-01 4.490717402455576e-01 3.942561294044880e-01
 -7.088613658436129e-01 6.634910597114667e-01 2.196780884198697e-01
 -7.133177270971782e-01 6.816848139744045e-01 -1.543984002174986e-01
 -9.230020622918198e-01 -1.508623025353576e-01 1.971039206444423e-01
 -8.715647329421966e-01 2.972662843810196e-01 2.581018454096456e-01
 5.974527091913345e-01 1.288169511151815e-01 8.271174724292498e-01
 7.833669219754650e-01 -6.701174703530867e-02 7.472059403004750e-01
 8.805580953543207e-02 -3.541664470809958e-01 6.153147830410483e-01
 3.079036135639188e-01 -8.079532079304591e-02 7.400160416070060e-01
 6.674569160946011e-01 -4.459216144835978e-01 5.521364170670882e-01
 8.167027225989508e-01 3.492484117073142e-01 8.933904046699208e-01
 7.785761910322907e-01 7.785761910322907e-01 9.719894721913567e-01
 1.288169511151815e-01 5.974527091913344e-01 8.271174724292498e-01
 3.428125405979421e-01 3.428125405979421e-01 8.474594069155789e-01
 -1.305111904834891e-01 -5.676834633019098e-01 4.807543974421313e-01
 -3.541664470809958e-01 8.805580953543204e-02 6.153147830410483e-01
 -9.339477145554935e-02 -9.339477145554935e-02 6.611477304957812e-01
 -5.163926813009730e-01 -5.163926813009730e-01 3.735374693535025e-01
 2.770627623928258e-01 -5.478190171456678e-01 5.412162294279487e-01
 -5.478190171456678e-01 2.770627623928258e-01 5.412162294279487e-01
 -8.079532079304591e-02 3.079036135639188e-01 7.400160416070060e-01
 -4.459216144835977e-01 6.674569160946010e-01 5.521364170670883e-01
 -5.676834633019098e-01 -1.305111904834891e-01 4.807543974421313e-01
 3.492484117073142e-01 8.167027225989507e-01 8.933904046699208e-01
 -6.701174703530866e-02 7.833669219754649e-01 7.472059403004750e-01
 1.288169511151815e-01 5.974527091913344e-01 -8.271174724292498e-01
 -6.701174703530866e-02 7.833669219754649e-01 -7.472059403004750e-01
 -3.541664470809958e-01 8.805580953543204e-02 -6.153147830410483e-01
 -8.079532079304591e-02 3.079036135639188e-01 -7.400160416070060e-01
 -4.459216144835977e-01 6.674569160946010e-01 -5.521364170670883e-01
 3.492484117073142e-01 8.167027225989507e-01 -8.933904046699208e-01
 7.785761910322907e-01 7.785761910322907e-01 -9.719894721913567e-01
 5.974527091913345e-01 1.288169511151815e-01 -8.271174724292498e-01
 3.428125405979421e-01 3.428125405979421e-01 -8.474594069155789e-01
 -5.676834633019098e-01 -1.305111904834891e-01 -4.807543974421313e-01
 8.805580953543207e-02 -3.541664470809958e-01 -6.153147830410483e-01
 -9.339477145554935e-02 -9.339477145554935e-02 -6.611477304957812e-01
 -5.163926813009730e-01 -5.163926813009730e-01 -3.735374693535025e-01
 -5.478190171456678e-01 2.770627623928258e-01 -5.412162294279487e-01
 2.770627623928258e-01 -5.478190171456678e-01 -5.412162294279487e-01
 3.079036135639188e-01 -8.079532079304591e-02 -7.400160416070060e-01
 6.674569160946011e-01 -4.459216144835978e-01 -5.521364170670882e-01
 -1.305111904834891e-01 -5.676834633019098e-01 -4.807543974421313e-01
 8.167027225989508e-01 3.492484117073142e-01 -8.933904046699208e-01
 7.833669219754650e-01 -6.701174703530867e-02 -7.472059403004750e-01
        </DataArray>
      </Points>
      <Cells>
        <DataArray type="Int32" Name="offsets">
 3
 6
 9
 12
 15
 18
 21
 24
 27
 30
 33
 36
 39
 42
 45
 48
 51
 54
 57
 60
 63
 66
 69
 72
 75
 78
 81
 84
 87
 90
 93
 96
 99
 102
 105
 108
 111
 114
 117
 120
 123
 126
 129
 132
 135
 138
 141
 144
 147
 150
 153
 156
 159
 162
 165
 168
 171
 174
 177
 180
 183
 186
 189
 192
 195
 198
 201
 204
 207
 210
 213
 216
 219
 222
 225
 228
 231
 234
 237
 240
 243
 246
 249
 252
 255
 258
 261
 264
 267
 270
 273
 276
 279
 282
 285
 288
 291
 294
 297
 300
 303
 306
 309
 312
 315
 318
 321
 324
 327
 330
 333
 336
 339
 342
 345
 348
 351
 354
 357
 360
 363
 366
 369
 372
 375
 378
 381
 384
 387
 390
 393
 396
 399
 402
 405
 408
 411
 414
 417
 420
 423
 426
 429
 432
 435
 438
 441
 444
 447
 450
 453
 456
 459
 462
 465
 468
 471
 474
 477
 480
 483
 486
 489
 492
 495
 498
 501
 504
 507
 510
 513
 516
 519
 522
 525
 528
 531
 534
 537
 540
 543
 546
 549
 552
 555
 558
 561
 564
 567
 570
 573
 576
 579
 582
 585
 588
 591
 594
 597
 600
 603
 606
 609
 612
 615
 618
 621
 624
 627
 630
 633
 636
 639
 642
 645
 648
 651
 654
 657
 660
 663
 666
 669
 672
 675
 678
 681
 684
 687
 690
 693
 696
 699
 702
 705
 708
 711
 714
 717
 720
 723
 726
 729
 732
 735
 738
 741
 744
 747
 750
 753
 756
 759
 762
 765
 768
 771
 774
 777
 780
 783
 786
 789
 792
 795
 798
 801
 804
 807
 810
 813
 816
 819
 822
 825
 828
 831
 834
 837
 840
 843
 846
 849
 852
 855
 858
 861
 864
 867
 870
 873
 876
 879
 882
 885
 888
 891
 894
 897
 900
 903
 906
 909
 912
 915
 918
 921
 924
 927
 930
 933
 936
 939
 942
 945
 948
 951
 954
 957
 960
 963
 966
 969
 972
 975
 978
 981
 984
 987
 990
 993
 996
 999
 1002
 1005
 1008
 1011
 1014
 1017
 1020
 1023
 1026
 1029
 1032
 1035
 1038
 1041
 1044
 1047
 1050
 1053
 1056
 1059
 1062
 1065
 1068
 1071
 1074
 1077
 1080
 1083
 1086
 1089
 1092
 1095
 1098
 1101
 1104
 1107
 1110
 1113
 1116
 1119
 1122
 1125
 1128
 1131
 1134
 1137
 1140
 1143
 1146
 1149
 1152
        </DataArray>
        <DataArray type="UInt8" Name="types">
 5
 5
 5
 5
 5
 5
 5
 5
 5
 5
 5
 5
 5
 5
 5
 5
 5
 5
 5
 5
 5
 5
 5
 5
 5
 5
 5
 5
 5
 5
 5
 5
 5
 5
 5
 5
 5
 5
 5
 5
 5
 5
 5
 5
 5
 5
 5
 5
 5
 5
 5
 5
 5
 5
 5
 5
 5
 5
 5
 5
 5
 5
 5
 5
 5
 5
 5
 5
 5
 5
 5
 5
 5
 5
 5
 5
 5
 5
 5
 5
 5
 5
 5
 5
 5
 5
 5
 5
 5
 5
 5
 5
 5
 5
 5
 5
 5
 5
 5
 5
 5
 5
 5
 5
 5
 5
 5
 5
 5
 5
 5
 5
 5
 5
 5
 5
 5
 5
 5
 5
 5
 5
 5
 5
 5
 5
 5
 5
 5
 5
 5
 5
 5
 5
 5
 5
 5
 5
 5
 5
 5
 5
 5
 5
 5
 5
 5
 5
 5
 5
 5
 5
 5
 5
 5
 5
 5
 5
 5
 5
 5
 5
 5
 5
 5
 5
 5
 5
 5
 5
 5
 5
 5
 5
 5
 5
 5
 5
 5
 5
 5
 5
 5
 5
 5
 5
 5
 5
 5
 5
 5
 5
 5
 5
 5
 5
 5
 5
 5
 5
 5
 5
 5
 5
 5
 5
 5
 5
 5
 5
 5
 5
 5
 5
 5
 5
 5
 5
 5
 5
 5
 5
 5
 5
 5
 5
 5
 5
 5
 5
 5
 5
 5
 5
 5
 5
 5
 5
 5
 5
 5
 5
 5
 5
 5
 5
 5
 5
 5
 5
 5
 5
 5
 5
 5
 5
 5
 5
 5
 5
 5
 5
 5
 5
 5
 5
 5
 5
 5
 5
 5
 5
 5
 5
 5
 5
 5
 5
 5
 5
 5
 5
 5
 5
 5
 5
 5
 5
 5
 5
 5
 5
 5
 5
 5
 5
 5
 5
 5
 5
 5
 5
 5
 5
 5
 5
 5
 5
 5
 5
 5
 5
 5
 5
 5
 5
 5
 5
 5
 5
 5
 5
 5
 5
 5
 5
 5
 5
 5
 5
 5
 5
 5
 5
 5
 5
 5
 5
 5
 5
 5
 5
 5
 5
 5
 5
 5
 5
 5
 5
 5
 5
 5
 5
 5
 5
 5
 5
 5
 5
 5
 5
 5
 5
 5
 5
 5
 5
 5
 5
 5
 5
 5
 5
 5
 5
 5
 5
 5
 5
 5
 5
 5
 5
        </DataArray>
        <DataArray type="Int32" Name="connectivity">
 17 13 21
 10 17 21
 17 8 26
 13 17 26
 20 13 29
 0 20 29
 20 10 21
 13 20 21
 32 16 33
 10 32 33
 32 3 36
 16 32 36
 17 16 39
 8 17 39
 17 10 33
 16 17 33
 25 24 43
 12 25 43
 25 8 45
 24 25 45
 42 24 48
 1 42 48
 42 12 43
 24 42 43
 28 13 49
 12 28 49
 28 0 29
 13 28 29
 25 13 26
 8 25 26
 25 12 49
 13 25 49
 44 37 53
 23 44 53
 44 8 54
 37 44 54
 52 37 57
 2 52 57
 52 23 53
 37 52 53
 47 24 58
 23 47 58
 47 1 48
 24 47 48
 44 24 45
 8 44 45
 44 23 58
 24 44 58
 38 16 59
 15 38 59
 38 8 39
 16 38 39
 35 16 36
 3 35 36
 35 15 59
 16 35 59
 56 37 60
 15 56 60
 56 2 57
 37 56 57
 38 37 54
 8 38 54
 38 15 60
 37 38 60
 61 46 62
 23 61 62
 61 22 67
 46 61 67
 47 46 69
 1 47 69
 47 23 62
 46 47 62
 52 51 70
 23 52 70
 52 2 72
 51 52 72
 61 51 75
 22 61 75
 61 23 70
 51 61 70
 66 65 79
 40 66 79
 66 22 81
 65 66 81
 78 65 84
 5 78 84
 78 40 79
 65 78 79
 68 46 85
 40 68 85
 68 1 69
 46 68 69
 66 46 67
 22 66 67
 66 40 85
 46 66 85
 80 73 89
 64 80 89
 80 22 90
 73 80 90
 88 73 93
 6 88 93
 88 64 89
 73 88 89
 83 65 94
 64 83 94
 83 5 84
 65 83 84
 80 65 81
 22 80 81
 80 64 94
 65 80 94
 74 51 95
 50 74 95
 74 22 75
 51 74 75
 71 51 72
 2 71 72
 71 50 95
 51 71 95
 92 73 96
 50 92 96
 92 6 93
 73 92 93
 74 73 90
 22 74 90
 74 50 96
 73 74 96
 97 82 98
 64 97 98
 97 63 102
 82 97 102
 83 82 104
 5 83 104
 83 64 98
 82 83 98
 88 87 105
 64 88 105
 88 6 107
 87 88 107
 97 87 110
 63 97 110
 97 64 105
 87 97 105
 101 100 113
 76 101 113
 101 63 115
 100 101 115
 112 100 118
 4 112 118
 112 76 113
 100 112 113
 103 82 119
 76 103 119
 103 5 104
 82 103 104
 101 82 102
 63 101 102
 101 76 119
 82 101 119
 114 108 122
 99 114 122
 114 63 123
 108 114 123
 121 108 126
 7 121 126
 121 99 122
 108 121 122
 117 100 127
 99 117 127
 117 4 118
 100 117 118
 114 100 115
 63 114 115
 114 99 127
 100 114 127
 109 87 128
 86 109 128
 109 63 110
 87 109 110
 106 87 107
 6 106 107
 106 86 128
 87 106 128
 125 108 129
 86 125 129
 125 7 126
 108 125 126
 109 108 123
 63 109 123
 109 86 129
 108 109 129
 130 116 131
 99 130 131
 130 9 133
 116 130 133
 117 116 135
 4 117 135
 117 99 131
 116 117 131
 121 120 136
 99 121 136
 121 7 138
 120 121 138
 130 120 140
 9 130 140
 130 99 136
 120 130 136
 132 19 142
 18 132 142
 132 9 144
 19 132 144
 141 19 145
 0 141 145
 141 18 142
 19 141 142
 134 116 146
 18 134 146
 134 4 135
 116 134 135
 132 116 133
 9 132 133
 132 18 146
 116 132 146
 143 31 147
 10 143 147
 143 9 148
 31 143 148
 32 31 150
 3 32 150
 32 10 147
 31 32 147
 20 19 151
 10 20 151
 20 0 145
 19 20 145
 143 19 144
 9 143 144
 143 10 151
 19 143 151
 139 120 152
 30 139 152
 139 9 140
 120 139 140
 137 120 138
 7 137 138
 137 30 152
 120 137 152
 149 31 153
 30 149 153
 149 3 150
 31 149 150
 139 31 148
 9 139 148
 139 30 153
 31 139 153
 154 91 155
 50 154 155
 154 14 157
 91 154 157
 92 91 158
 6 92 158
 92 50 155
 91 92 155
 71 55 159
 50 71 159
 71 2 160
 55 71 160
 154 55 162
 14 154 162
 154 50 159
 55 154 159
 156 124 163
 86 156 163
 156 14 165
 124 156 165
 125 124 166
 7 125 166
 125 86 163
 124 125 163
 106 91 167
 86 106 167
 106 6 158
 91 106 158
 156 91 157
 14 156 157
 156 86 167
 91 156 167
 164 34 168
 30 164 168
 164 14 169
 34 164 169
 149 34 170
 3 149 170
 149 30 168
 34 149 168
 137 124 171
 30 137 171
 137 7 166
 124 137 166
 164 124 165
 14 164 165
 164 30 171
 124 164 171
 161 55 172
 15 161 172
 161 14 162
 55 161 162
 56 55 160
 2 56 160
 56 15 172
 55 56 172
 35 34 173
 15 35 173
 35 3 170
 34 35 170
 161 34 169
 14 161 169
 161 15 173
 34 161 173
 174 27 175
 12 174 175
 174 11 177
 27 174 177
 28 27 178
 0 28 178
 28 12 175
 27 28 175
 42 41 179
 12 42 179
 42 1 180
 41 42 180
 174 41 182
 11 174 182
 174 12 179
 41 174 179
 176 111 183
 18 176 183
 176 11 185
 111 176 185
 134 111 186
 4 134 186
 134 18 183
 111 134 183
 141 27 187
 18 141 187
 141 0 178
 27 141 178
 176 27 177
 11 176 177
 176 18 187
 27 176 187
 184 77 188
 76 184 188
 184 11 189
 77 184 189
 103 77 190
 5 103 190
 103 76 188
 77 103 188
 112 111 191
 76 112 191
 112 4 186
 111 112 186
 184 111 185
 11 184 185
 184 76 191
 111 184 191
 181 41 192
 40 181 192
 181 11 182
 41 181 182
 68 41 180
 1 68 180
 68 40 192
 41 68 192
 78 77 193
 40 78 193
 78 5 190
 77 78 190
 181 77 189
 11 181 189
 181 40 193
 77 181 193
        </DataArray>
      </Cells>
      <PointData>
        <DataArray type="Float32" Name="phi" format="ascii">
 1.246263414689253e-08
 0.000000000000000e+00
 0.000000000000000e+00
 1.246263414689253e-08
 1.133254601271005e-10
 1.246263414689253e-08
 1.246263414689253e-08
 1.133254601271005e-10
 1.007965955146517e-08
 8.495718017975662e-09
 3.595455368987643e-07
 5.302758232517135e-12
 2.529456866184887e-09
 2.695709211408825e-10
 5.302758232517135e-12
 2.529456866184887e-09
 1.497191259858255e-11
 4.492073379935846e-12
 2.798136278236996e-09
 5.460776275612034e-11
 3.357350286670169e-09
 2.958021938503919e-09
 1.007965944044287e-08
 1.127653526111771e-12
 3.252106629547669e-07
 6.088450854591088e-10
 7.999041462536383e-08
 1.157093976189572e-09
 5.391028299328582e-07
 6.344829928117690e-08
 2.798136278236996e-09
 1.408316574469382e-09
 3.357350286670169e-09
 4.171376166706153e-08
 1.157093976189572e-09
 5.391028299328582e-07
 5.629286915498355e-07
 3.534805781413297e-11
 9.416509783033433e-08
 8.702306313335129e-07
 2.529456755162585e-09
 3.726629782541124e-09
 5.812041256048062e-07
 4.555330335165308e-08
 7.368778287553113e-08
 1.086725598398175e-09
 3.534805781413297e-11
 9.013529922441421e-09
 1.241669767004794e-09
 4.414875577340993e-07
 2.529456755162585e-09
 3.252106630657892e-07
 9.013529922441421e-09
 3.439991824727429e-08
 7.591927086991745e-12
 3.726629782541124e-09
 5.812041256048062e-07
 7.580414852492723e-07
 8.992358988546556e-07
 4.360420796656328e-07
 1.781616471019376e-07
 7.368778287553113e-08
 3.439991824727429e-08
 8.495718017975662e-09
 3.595455367877420e-07
 1.497191259858255e-11
 9.416509794135663e-08
 7.591927086991745e-12
 5.812041254937839e-07
 7.580414852492723e-07
 8.992358989656779e-07
 5.812041254937839e-07
 1.241669655982491e-09
 2.695709211408825e-10
 6.088450854591088e-10
 1.086725709420477e-09
 2.798136278236996e-09
 1.157093976189572e-09
 5.391028299328582e-07
 4.360420799986997e-07
 4.492073379935846e-12
 8.702306313335129e-07
 1.408316463447079e-09
 3.357350175647866e-09
 5.629286915498355e-07
 1.781616471019376e-07
 2.798136278236996e-09
 5.460776275612034e-11
 3.357350175647866e-09
 2.958021938503919e-09
 7.999041462536383e-08
 1.157093976189572e-09
 5.391028299328582e-07
 6.344829928117690e-08
 4.171376166706153e-08
 4.555330324063078e-08
 4.414875578451216e-07
 3.463084263799487e-10
 6.844835653829762e-08
 1.931036353042259e-07
 1.526752613223437e-09
 1.096562729507866e-09
 8.829390425457717e-07
 8.629433834173028e-10
 2.284173150624014e-08
 5.372369216161132e-13
 8.629433834173028e-10
 2.904235363310192e-08
 9.611516027518974e-10
 2.439017854349856e-08
 4.270832454356110e-08
 5.197079135932370e-07
 1.187176246197907e-09
 2.947144750464759e-10
 1.005021066369238e-09
 2.072205496084223e-07
 9.611514917295949e-10
 1.229938817459697e-09
 3.538753060583488e-07
 3.611466681263664e-11
 1.526752613223437e-09
 1.229938817459697e-09
 7.968091785270914e-07
 1.236801406845345e-07
 5.197079135932370e-07
 1.187176246197907e-09
 1.474637245646448e-07
 4.651063945093625e-08
 3.630544570532024e-07
 1.687372135350529e-07
 1.005021066369238e-09
 7.968091785270914e-07
 2.439017854349856e-08
 1.236801405735122e-07
 1.187176246197907e-09
 1.474637246756672e-07
 4.651063945093625e-08
 1.187176246197907e-09
 3.538753060583488e-07
 1.096562729507866e-09
 2.072205494974000e-07
 8.629433834173028e-10
 3.630544570532024e-07
 3.463084263799487e-10
 4.270832454356110e-08
 2.904235363310192e-08
 1.687372135350529e-07
 6.844835664931992e-08
 8.829390425457717e-07
 8.629433834173028e-10
 2.284173161726244e-08
 5.371258993136507e-13
 2.947144750464759e-10
 3.611466681263664e-11
 1.312829827071482e-07
 4.447520129957638e-11
 6.090924986601465e-09
 4.768074823857660e-12
 2.409647481549371e-09
 8.460133182897067e-08
 4.978462087024127e-12
 1.312829828181705e-07
 4.306801193454390e-08
 5.755607102031490e-11
 6.090924986601465e-09
 1.805608987881513e-07
 5.198126373784362e-10
 2.480127214710137e-12
 2.480127214710137e-12
 4.768074823857660e-12
 2.409647481549371e-09
 5.755607102031490e-11
 8.460133182897067e-08
 4.447520129957638e-11
 1.312829828181705e-07
 4.447520129957638e-11
 6.090924986601465e-09
 4.768074823857660e-12
 2.409647481549371e-09
 8.460133182897067e-08
 4.978462087024127e-12
 1.312829827071482e-07
 4.306801193454390e-08
 5.755607102031490e-11
 6.090924986601465e-09
 1.805608987881513e-07
 5.198126373784362e-10
 2.480127214710137e-12
 2.480127214710137e-12
 4.768074823857660e-12
 2.409647481549371e-09
 5.755607102031490e-11
 8.460133182897067e-08
 4.447520129957638e-11
        </DataArray>
      </PointData>
    </Piece>
  </UnstructuredGrid>
</VTKFile>
