<?xml version="1.0"?>
<VTKFile type="UnstructuredGrid" version="0.1" byte_order="LittleEndian">
  <UnstructuredGrid>
    <Piece NumberOfPoints="5292" NumberOfCells="10580">
      <Points>
        <DataArray type="Float32" NumberOfComponents="3" format="ascii">
 -4.011872904678947e-01 4.578583642806288e-01 3.390708609562514e-02
 -3.814544809618421e-01 4.621935850002009e-01 6.826579557553332e-09
 -4.104017852219919e-01 4.559522614701520e-01 6.692924160721637e-09
 -3.682846769852841e-01 4.646870890454699e-01 3.759258567061377e-02
 -3.496948664040115e-01 4.684318152467956e-01 6.966581320375994e-09
 -3.908371071272537e-01 4.596072858762140e-01 7.179338575092001e-02
 -3.345282703787123e-01 4.710084855359318e-01 3.951970631008905e-02
 -3.160882247628505e-01 4.743645739816751e-01 7.102067130480234e-09
 -3.558120141504498e-01 4.665722492879621e-01 7.704334859134904e-02
 -3.795501622191543e-01 4.610751801654201e-01 1.120463331124852e-01
 -2.997642943178544e-01 4.768127414703626e-01 4.078678567033199e-02
 -2.812019448264699e-01 4.798239857165179e-01 7.228031950209712e-09
 -3.203658121618011e-01 4.728903398466928e-01 8.025592463489603e-02
 -3.430653323182240e-01 4.680059167366630e-01 1.179842433798167e-01
 -3.674448372037029e-01 4.621852229964077e-01 1.538754165391489e-01
 -2.640976152907283e-01 4.820473253430742e-01 4.169320444247960e-02
 -2.453539419647522e-01 4.847165637248135e-01 7.341389423952914e-09
 -2.843452572892546e-01 4.785721644362832e-01 8.245648317064551e-02
 -3.062870727577550e-01 4.742288826477384e-01 1.219922249839485e-01
 -3.298028289814299e-01 4.689978492156451e-01 1.601066148660943e-01
 -3.545651743364237e-01 4.628876817826437e-01 1.968558037798217e-01
 -2.276730439532507e-01 4.866639615047531e-01 4.236328564919470e-02
 -2.087532366288598e-01 4.889838006273419e-01 7.440003513426238e-09
 -2.477292240868323e-01 4.836034043776574e-01 8.404788421266685e-02
 -2.691374002148790e-01 4.797493288304612e-01 1.248430086929349e-01
 -2.919210111621530e-01 4.750640957744160e-01 1.645686613947162e-01
 -3.159318066948903e-01 4.695322966412209e-01 2.031594379829702e-01
 -3.409249001458464e-01 4.631458791439937e-01 2.407161413120949e-01
 -1.906263152439265e-01 4.906230553966991e-01 4.286259011645225e-02
 -1.715573379015435e-01 4.925869164145785e-01 7.522299705056756e-09
 -2.105656591978067e-01 4.879632426833199e-01 8.522405258496085e-02
 -2.315841410838994e-01 4.845637591022485e-01 1.269296857716417e-01
 -2.537712178053733e-01 4.803855708506722e-01 1.678318341120172e-01
 -2.770890077638320e-01 4.754004661589792e-01 2.078357054917929e-01
 -3.014017147356067e-01 4.695885319775399e-01 2.469416620606749e-01
 -3.265243586869393e-01 4.629298308402907e-01 2.852575148655054e-01
 -1.530793054298584e-01 4.938966221681510e-01 4.323099801538930e-02
 -1.338963001514992e-01 4.954976223448109e-01 7.587093045848784e-09
 -1.729292125017445e-01 4.916299613668635e-01 8.609413133820250e-02
 -1.936414677142805e-01 4.886632680325346e-01 1.284709476577693e-01
 -2.153348543360172e-01 4.849610142131500e-01 1.702429901351962e-01
 -2.380364721747848e-01 4.804920839616669e-01 2.113171605496019e-01
 -2.616895549680537e-01 4.752291020217238e-01 2.516540741610723e-01
 -2.861779606060262e-01 4.691459326192069e-01 2.912869277566680e-01
 -3.113573085043167e-01 4.622125517562984e-01 3.303191277599620e-01
 -1.151425360912624e-01 4.964627509804984e-01 4.349476014769345e-02
 -9.588462836337631e-02 4.976961885868044e-01 7.633504496922919e-09
 -1.349037322147173e-01 4.945850879565495e-01 8.672645644288590e-02
 -1.553519393423961e-01 4.920367682160509e-01 1.296001568458640e-01
 -1.766190993772570e-01 4.887875206159887e-01 1.720196378778724e-01
 -1.987704911611654e-01 4.848075400177643e-01 2.139018251708493e-01
 -2.218032957824645e-01 4.800670652306130e-01 2.551949770812866e-01
 -2.456574562511085e-01 4.745364800058113e-01 2.958947870549214e-01
 -2.702337980414959e-01 4.681831633907229e-01 3.360511847537045e-01
 -2.954145997022645e-01 4.609704903690569e-01 3.757615646731849e-01
 -7.691889216990419e-02 4.983060206693219e-01 4.367165479998491e-02
 -5.762762395299066e-02 4.991689244361428e-01 7.660914455809306e-09
 -9.657561161425583e-02 4.968138434060557e-01 8.716635834039652e-02
 -1.167738417246327e-01 4.946726689685633e-01 1.304041768888926e-01
 -1.376524490137425e-01 4.918591845377563e-01 1.733045758773822e-01
 -1.593000534509610e-01 4.883457374021409e-01 2.157947664017622e-01
 -1.817503442926309e-01 4.841028112289406e-01 2.578214123502414e-01
 -2.049858552986229e-01 4.791007954039199e-01 2.993628321892547e-01
 -2.289475076164496e-01 4.733056451064830e-01 3.404372985669882e-01
 -2.535480573367070e-01 4.666798385146921e-01 3.811043300135253e-01
 -2.786857628827007e-01 4.591806439087345e-01 4.214570759636468e-01
 -3.850634077128140e-02 4.994158304809166e-01 4.377334855187381e-02
 -1.922526446958291e-02 4.999075942583908e-01 7.668936732485598e-09
 -5.803160515204118e-02 4.983055165818795e-01 8.744406907689302e-02
 -7.797423143120009e-02 4.965626634920859e-01 1.309412039686221e-01
 -9.847838370263623e-02 4.941696355986394e-01 1.741944270182602e-01
 -1.196484439902041e-01 4.911028337349540e-01 2.171389139227250e-01
 -1.415435966982174e-01 4.873357050277559e-01 2.597229616675885e-01
 -1.641779580255041e-01 4.828385459109836e-01 3.019167778435827e-01
 -1.875254974805988e-01 4.775787627534525e-01 3.437203052510302e-01
 -2.115279596458276e-01 4.715187505539918e-01 3.851673602831951e-01
 -2.361045494149217e-01 4.646169205351823e-01 4.263245284985267e-01
 -2.611607845867856e-01 4.568224371607075e-01 4.672836452339146e-01
 8.361978276472179e-10 4.997865665800097e-01 4.380652147727103e-02
 1.922526612468321e-02 4.999075942425599e-01 7.657400949323551e-09
 -1.935822925069553e-02 4.990528213981612e-01 8.757838532612111e-02
 -3.902484955276078e-02 4.976998396921423e-01 1.312490982596365e-01
 -5.915021706410360e-02 4.957132972293167e-01 1.747541312050773e-01
 -7.985098365872706e-02 4.930756243069042e-01 2.180337166372402e-01
 -1.012050127027687e-01 4.897631115367147e-01 2.610375892045629e-01
 -1.232502777526397e-01 4.857484802069001e-01 3.037314133213618e-01
 -1.459871303549881e-01 4.810011096765476e-01 3.461034178113528e-01
 -1.693828136348342e-01 4.754844047797677e-01 3.881694036067581e-01
 -1.933777307509836e-01 4.691576436157743e-01 4.299750574030666e-01
 -2.178918487219888e-01 4.619731011277939e-01 4.715937775148931e-01
 -2.428310922978593e-01 4.538758111937209e-01 5.131203931333329e-01
 3.850634244306785e-02 4.994158304491562e-01 4.377334852843558e-02
 5.762762560690982e-02 4.991689243886473e-01 7.626347212741359e-09
 1.935823093932206e-02 4.990528213819124e-01 8.757838531416277e-02
 8.522230048113377e-10 4.980793443347745e-01 1.313493906583443e-01
 -1.972737864313290e-02 4.964864292407726e-01 1.750242122937912e-01
 -3.995165115364190e-02 4.942611071336455e-01 2.185452906240093e-01
 -6.076540049614412e-02 4.913830532762760e-01 2.618623724834822e-01
 -8.222502870237072e-02 4.878297087710540e-01 3.049372427486313e-01
 -1.043517410756463e-01 4.835707360681720e-01 3.477488011801704e-01
 -1.271345437088854e-01 4.785738647013817e-01 3.902986845489929e-01
 -1.505338067181364e-01 4.727997328883970e-01 4.326148439188310e-01
 -1.744854446251451e-01 4.662029813992771e-01 4.747531181535412e-01
 -1.989048960881485e-01 4.587305994994104e-01 5.167953468718158e-01
 -2.236910893367604e-01 4.503215567521948e-01 5.588438772259564e-01
 7.691889383984903e-02 4.983060206053662e-01 4.367165475318947e-02
 9.588463001492180e-02 4.976961885072644e-01 7.576027365984316e-09
 5.803160683939289e-02 4.983055165334573e-01 8.744406904106776e-02
 3.902485125653957e-02 4.976998396594897e-01 1.312490982351972e-01
 1.972738036235856e-02 4.964864292242040e-01 1.750242122812613e-01
 8.668426966218861e-10 4.946560388784634e-01 2.187116408376353e-01
 -2.026234531368161e-02 4.921939111488249e-01 2.622595460605338e-01
 -4.113049382354379e-02 4.890789134789770e-01 3.056249324788959e-01
 -6.264229464076732e-02 4.852860835348335e-01 3.487780634493933e-01
 -8.480463132813379e-02 4.807843098862085e-01 3.917072080905036e-01
 -1.075958764924992e-01 4.755376768199503e-01 4.344234493901362e-01
 -1.309682881925047e-01 4.695045800554885e-01 4.769643776807663e-01
 -1.548498115141810e-01 4.626342890791424e-01 5.193956558598648e-01
 -1.791458012814700e-01 4.548697668706319e-01 5.618105427688755e-01
 -2.037403103042568e-01 4.461431875415297e-01 6.043247405803857e-01
 1.151425377581549e-01 4.964627508846451e-01 4.349476007771424e-02
 1.338963017995070e-01 4.954976222334795e-01 7.506910465120603e-09
 9.657561329905677e-02 4.968138433253730e-01 8.716635828083269e-02
 7.797423313297337e-02 4.965626634267490e-01 1.309412039198291e-01
 5.915021878193878e-02 4.957132971800620e-01 1.747541311675490e-01
 3.995165288658904e-02 4.942611070999056e-01 2.185452905982869e-01
 2.026234706082887e-02 4.921939111316499e-01 2.622595460473048e-01
 8.802046287292063e-10 4.894956653505504e-01 3.058482439996201e-01
 -2.088609759456228e-02 4.861443010702512e-01 3.492723373519373e-01
 -4.241724519083653e-02 4.821122797502393e-01 3.925066735008759e-01
 -6.458727232821686e-02 4.773668142667799e-01 4.355448308783176e-01
 -8.736402741213406e-02 4.718702496939259e-01 4.784040837559890e-01
 -1.106898743477897e-01 4.655766975458709e-01 5.211295540551180e-01
 -1.344811299634542e-01 4.584316674305604e-01 5.637975096372910e-01
 -1.586265813583830e-01 4.503724521162665e-01 6.065164968672684e-01
 -1.829858530417796e-01 4.413246874767107e-01 6.494233821439784e-01
 1.530793070924863e-01 4.938966220403961e-01 4.323099792248426e-02
 1.715573395448583e-01 4.925869162715011e-01 7.419701659521845e-09
 1.349037338956929e-01 4.945850878436087e-01 8.672645635980081e-02
 1.167738434230597e-01 4.946726688705240e-01 1.304041768159191e-01
 9.847838541764353e-02 4.941696355157436e-01 1.741944269558266e-01
 7.985098538945283e-02 4.930756242394214e-01 2.180337165858832e-01
 6.076540224173433e-02 4.913830532247348e-01 2.618623724438390e-01
[...]
      <PointData>
        <DataArray type="Float32" Name="phi" format="ascii">
 -3.287250494588001e-07
 -4.194463899542811e-07
 -2.578638093053698e-07
 -9.718983947637483e-07
 -1.913452413182526e-08
 -6.555462650492672e-08
 -3.630012680999606e-07
 -6.189855025762192e-07
 -5.382235839790361e-07
 -3.312585678538760e-07
 -2.226501342739162e-07
 -6.185751351139857e-07
 -9.898385353590555e-07
 -6.167494427944398e-07
 -8.646811688883815e-08
 -6.829921225248725e-07
 -4.272827960893899e-07
 -3.493783469199485e-07
 -9.142657570460067e-07
 -6.089437031286948e-07
 -1.550190486532266e-07
 -5.901330984992015e-08
 -7.285465674633507e-07
 -8.221285421883273e-07
 -1.869163421819309e-07
 -8.615857174931740e-07
 -4.455272132330990e-07
 -3.931189946349001e-07
 -5.719654564417809e-07
 -2.994604219042074e-07
 -7.682434768896407e-07
 -6.505525956823632e-08
 -4.124564673135822e-08
 -5.943338177161195e-07
 -5.723450674510744e-07
 -2.317423468678470e-07
 -3.009709138024341e-07
 -1.029041482025761e-07
 -5.504710668957635e-07
 -1.820773483651728e-07
 -4.850429329850137e-07
 -7.129370300229532e-07
 -6.066953704975120e-07
 -1.476271929701234e-07
 -5.991818690098683e-07
 -1.732666973786046e-07
 -7.675414459562546e-08
 -2.334488188870942e-07
 -3.588395941500622e-08
 -6.427331466496433e-07
 -8.906919731765939e-07
 -7.689011914391308e-07
 -8.204677753864686e-08
 -2.540608635692720e-07
 -4.648290556907853e-07
 -1.363357615691285e-07
 -2.982332950596245e-07
 -1.469483555949225e-07
 -8.917954562037700e-07
 -6.588075131541693e-07
 -3.210728253266737e-07
 -8.134582787922007e-07
 -1.207401038039180e-07
 -3.994198222168066e-08
 -8.789904021866413e-07
 -9.359957353072268e-07
 -4.860473281076416e-07
 1.099138657867371e-08
 -1.761972657221555e-07
 -9.189794805686269e-07
 -7.023864473931773e-07
 -5.143337932222991e-07
 -3.003676478097184e-07
 -2.893825439276299e-07
 -5.773430067357310e-10
 -5.645788136998675e-07
 -8.771104303972876e-08
 -9.318649779599397e-07
 -3.287714558375399e-07
 1.099155022554754e-08
 -7.538166910125987e-07
 -1.973008644795549e-07
 -8.339499926179883e-07
 -6.117240471392726e-07
 -6.011959495233477e-07
 -8.965951683315154e-07
 -2.825717286825125e-07
 -4.515347165612305e-07
 -6.152788615265692e-07
 -9.030232693274520e-07
 -5.734777964172544e-07
 -4.860468564849008e-07
 -2.982328167755455e-07
 -7.538169035092857e-07
 -8.510455951071805e-09
 -4.275611937831769e-07
 -6.116755424390163e-08
 -9.724853344827977e-07
 -1.568047806044248e-07
 -8.815659365279949e-07
 -7.241340508334915e-07
 -4.776390355454296e-07
 -1.921432755680463e-07
 -3.552000467088590e-07
 -6.995213508997900e-07
 -1.363356975647712e-07
 -7.675413377095097e-08
 -1.761972545089030e-07
 -1.973008051381342e-07
 -4.275611570347948e-07
 -8.548826049836755e-07
 -5.664483782030771e-07
 -7.519409780387676e-07
 -3.307062462210020e-07
 -4.182382325468303e-07
 -7.921124912657618e-07
 -1.040074901204058e-07
 -4.976676845624972e-07
 -1.399898887921580e-07
 -3.493745159843797e-08
 -1.732664703379960e-07
 -1.029041436506617e-07
 -1.469482894256302e-07
 -9.189794011321695e-07
 -8.339489620534657e-07
 -6.116752382379076e-08
 -5.664483326839331e-07
 -6.209043437177542e-07
 -1.746176279682210e-07
 -1.695992291050885e-09
 -6.914657668111168e-07
 -5.944082150932672e-07
 -3.283497329031881e-07
 -9.739081681114925e-07
 -9.434879179592848e-07
 -7.449570481599110e-07
 -3.009705757950343e-07
 -2.994604114125998e-07
 -2.334486868815766e-07
 -8.917953431830661e-07
 -7.023862483301890e-07
 -6.117239202962921e-07
 -9.724851826042880e-07
 -7.519408833367436e-07
 -1.746175897765490e-07
 -9.595759009606297e-07
 -5.437562520804740e-07
 -7.667855215220953e-07
 -6.535769635496180e-07
 -6.454387050380817e-07
 -7.240615705894626e-07
 -1.194971970264191e-07
 -3.963389856309618e-07
 -5.719651144930893e-07
 -7.285466442907840e-07
 -5.504706863113107e-07
 -3.588389729802799e-08
 -6.588072621882546e-07
 -5.143335923274428e-07
 -6.011957447427108e-07
 -1.568046503197529e-07
 -3.307061083868135e-07
 -1.695972806636803e-09
 -5.437561905186072e-07
 -6.975746248971681e-07
 -9.004234843290604e-07
 -1.195385843644203e-07
 -1.207517824619586e-08
 -9.483376571250979e-07
 -6.738584919507851e-07
 -2.327734501261780e-07
 -5.901329286350787e-08
 -4.272829449147864e-07
 -7.682428408983810e-07
 -1.820771843852320e-07
 -6.427328125280241e-07
 -3.210725681990212e-07
 -3.003674186041749e-07
 -8.965948563033344e-07
 -8.815656376004455e-07
 -4.182380238249017e-07
 -6.914655735212882e-07
 -7.667853829107507e-07
 -9.004234102771846e-07
 -9.570264697389419e-07
 -9.615277143382173e-07
 -1.449296785360765e-07
 -7.779628001802763e-07
 -9.288992083855696e-07
 -9.456061352830503e-07
 -6.829917026385246e-07
 -6.185753771426050e-07
 -8.221278618436578e-07
 -6.505511995769098e-08
 -4.850425674440828e-07
 -8.906914704120972e-07
 -8.134578151630656e-07
 -2.893822693694759e-07
 -2.825714329190987e-07
 -7.241336983931923e-07
 -7.921121518705831e-07
 -5.944079495279198e-07
 -6.535767382298552e-07
 -1.195384887742179e-07
 -9.615276234109515e-07
 -9.912888971896905e-07
 -3.476438705796170e-07
 -4.090029792069849e-07
 -2.754324301967870e-07
 -8.061105404855162e-07
 -2.226500052104896e-07
 -6.189858516858493e-07
 -3.493779605623359e-07
 -1.869160352052646e-07
 -4.124544283889975e-08
 -7.129364719693498e-07
 -7.689006348288174e-07
 -1.207398500069345e-07
 -5.758579169068412e-10
 -4.515342389432853e-07
 -4.776386343108285e-07
 -1.040072486468979e-07
 -3.283494162675815e-07
 -6.454383468801339e-07
 -1.207508132372581e-08
 -1.449295261579664e-07
 -3.476437513971753e-07
 -6.494395318190627e-07
 -1.486181028798050e-07
 -7.996282184175030e-07
 -4.149026838762282e-07
 -3.630009277055812e-07
 -1.913483421711604e-08
 -9.898374883077210e-07
 -9.142647839355256e-07
 -8.615847998938442e-07
 -5.943331542468400e-07
 -6.066947343952300e-07
 -8.204643908715781e-08
 -3.994172720345190e-08
 -5.645781948615536e-07
 -6.152782788815259e-07
 -1.921428654516610e-07
 -4.976671909573405e-07
 -9.739075851333823e-07
 -7.240610545022896e-07
 -9.483371380958339e-07
 -7.779623327763829e-07
 -4.090026460290552e-07
 -1.486179230791862e-07
 -3.156506373502843e-07
 -9.072736290027805e-08
 -2.572615215301610e-07
 -9.718954933068957e-07
 -4.194468878337965e-07
 -5.382216533011963e-07
 -6.167486674146794e-07
 -6.089427985189744e-07
 -4.455264763780775e-07
 -5.723442852434424e-07
 -1.476266865974019e-07
 -2.540602888623233e-07
 -8.789895818428484e-07
 -8.771062831591792e-08
 -9.030224821238164e-07
 -3.551994537387415e-07
 -1.399894675735425e-07
 -9.434871741653694e-07
 -1.194967899631472e-07
 -6.738578277598606e-07
 -9.288984303967851e-07
 -2.754318418896062e-07
 -7.996273887478367e-07
 -9.072685508426659e-08
 6.677120945042248e-08
 5.755992957823253e-07
 -3.287213969360714e-07
 -2.578641131734116e-07
 -6.558384291199815e-08
 -3.312500873042801e-07
 -8.646757881924927e-08
 -1.550183864607035e-07
 -3.931181417615726e-07
 -2.317416502028991e-07
 -5.991809778893575e-07
 -4.648282710961738e-07
 -9.359947687470616e-07
 -9.318640359912145e-07
 -5.734769902288051e-07
 -6.995204871462768e-07
 -3.493709638258125e-08
 -7.449561635342050e-07
 -3.963382135818705e-07
 -2.327727565698545e-07
 -9.456049497869046e-07
 -8.061091820166233e-07
 -4.149010919274332e-07
 -2.572560503510957e-07
 5.756020110547766e-07
 -2.197907932877108e-07
 1.231426991488149e-07
 -3.270028439139594e-07
 7.309577284564384e-07
 4.783001661401443e-08
 5.760959320699754e-08
 -3.056452865246584e-07
 1.442440150656310e-07
 2.674123842361098e-07
 -4.774127775886150e-07
 -9.988775090397084e-08
 3.322293197216553e-07
 3.460915343200810e-08
 -6.438434130284776e-07
 -1.181659071147756e-07
 -3.946221373563041e-07
 7.344243257989547e-07
 9.197519703629808e-07
 -8.997607764404947e-08
 -7.556359266081003e-08
 -8.708914721600181e-07
 -5.471957720271092e-08
 3.956112117897703e-07
 9.746216245165584e-07
 1.033179094500625e-07
 -3.009529854214321e-07
 -3.136585582930174e-07
 -7.808892404370660e-07
 -8.786540823257916e-07
 3.144437219493312e-07
 5.039831035835718e-07
 -4.010754603434030e-07
 -6.012806461619391e-07
 -1.007065230651527e-07
 -7.884149397785478e-07
 -2.132694436052240e-07
 -2.371623344932239e-07
 5.034363523837015e-07
 1.640472532260517e-07
 -8.063395476320956e-07
 -6.371005554783871e-07
 -2.752619945867174e-07
 -1.514219429288310e-07
 -6.606886370219556e-07
 -8.580127197066467e-07
 -3.719918667544064e-08
 3.509284468572460e-07
 2.711437351310408e-07
 -4.126127143289082e-07
 -8.101822651651602e-07
 -3.127996558438539e-07
 -1.142336393811227e-07
 -5.986561728565931e-07
 -3.219948974120257e-09
 -2.666118695815456e-07
 -5.476551313554623e-07
 1.941669376392952e-07
 7.617200368237320e-07
 -3.097284232422837e-07
 -2.194772745767182e-07
 -2.922686745954195e-07
 -7.014017822104535e-08
 -5.422964949874931e-07
 -9.292060834109606e-07
 -2.398731056563186e-07
 -4.709803046454297e-07
 -5.638438124733192e-07
 -7.129207618694622e-08
 8.083570285366548e-07
 -8.196194861143091e-07
 -4.807045140275967e-07
 -1.519550351658516e-07
 -6.666837426561045e-07
 -9.645822370285551e-07
 -8.695116575641038e-07
 -2.335247483165048e-07
 -2.546415622250997e-07
 -4.382457907126103e-07
 -3.891634547947831e-07
 1.823855384497364e-07
 1.374625550054631e-07
 -8.954885715173333e-07
 -7.184477602839578e-07
 -8.027649742725629e-07
 -8.475880987623974e-07
 -9.893554596129839e-07
 -9.044007761582762e-07
 -6.425223903483435e-07
 -6.574105255729989e-07
 -5.723686873349010e-07
 -1.940394869781592e-07
 -8.703027877809966e-07
 1.816914956265236e-07
 8.851328318071339e-07
 -1.946430835397805e-07
 -9.081877299643715e-07
 -5.521501620364688e-07
 -2.875303112270799e-08
 -7.656249788046132e-07
 -2.496503531124183e-07
 -6.014840515655706e-07
 -2.721570412922425e-07
 -5.984985659290842e-07
 -8.185347974976054e-07
 -9.799075048610995e-07
 -8.479462914601221e-07
 -2.411274790947715e-07
 4.864432193718571e-07
 -9.502703475217089e-07
 -1.980516271538058e-07
 -1.911010472088748e-07
 -5.208284439839339e-07
 -8.693566623807492e-07
 -8.425064784711722e-07
 -8.057671872507832e-07
 -8.457143265694356e-07
 -5.531341991105165e-07
 -6.228124765916832e-08
 -4.523228411268398e-07
 -4.924224233371355e-07
 -2.397036468759772e-07
 -4.526164597007387e-07
 8.991670724656231e-07
 -7.801448063116112e-07
 -1.000317673138795e-07
 -7.877570685210777e-07
 -6.689281697447313e-07
 -9.577089938317407e-07
 -2.326743697711464e-08
 -2.963472172101689e-07
 -4.746366955021841e-07
 -1.772762223684055e-07
 -1.853541220508959e-08
 -5.792656854186617e-08
 -2.059176371638216e-07
 -5.638421118892012e-09
 -3.758426168065654e-07
 -1.207148205284447e-07
 9.650869932098516e-07
 -7.001742263201827e-07
 -9.537042422458342e-07
 -4.411517948721411e-07
 -8.581266916496411e-07
 -1.476752617413091e-07
 -1.317470933459575e-07
 -8.669609852240967e-08
 -4.544760856539654e-08
 -3.241087976335599e-07
 -4.214014311942904e-07
 -2.391491362718767e-07
 -9.536611700888820e-07
 -6.573989669300673e-07
 -5.090506943750128e-08
 -4.400736347554002e-07
 -5.988215794894280e-07
 8.171104164400589e-07
 -8.465505169641396e-07
 -3.516396590574900e-07
 -7.248004956217358e-07
 -1.644328321281918e-07
 -1.624912329689643e-07
 -2.511299237450970e-07
 -6.259568653965708e-07
 -7.356644277090041e-07
 -4.147487185912624e-07
 -8.941482709801107e-07
 -2.094083640935551e-07
 -3.607996907906141e-07
 -3.843430965710937e-07
 -7.078852813924286e-07
 -7.666328014632739e-07
 -5.336161978952703e-08
 -9.815440622507055e-07
 8.424376775062470e-07
 -8.575474375049907e-07
 -2.895388024892753e-07
 -9.360350571863130e-07
 -4.558588576619726e-07
 -6.220986584759558e-07
 -4.031878991228588e-07
 -3.535799942833151e-07
 -2.518696057274283e-07
 -6.229936343471465e-07
 -6.004256061231672e-07
 -9.691169687853218e-07
 -2.787854419539215e-07
 -7.851938057523711e-07
 -8.061359824118597e-07
 -9.400023051053807e-07
 -9.567312841962661e-07
 -5.029803263334465e-07
 -9.264169502087860e-07
 7.565866528835841e-07
 -2.246200319633296e-07
 -5.264115188197138e-07
 -5.046916534690027e-07
 -5.281349899077803e-07
 -5.408702113407493e-07
 -8.384315569598400e-07
 -6.952068759003005e-07
 -6.638807739101082e-07
 -7.815006294320526e-07
 -1.135057533518946e-07
 -4.149060641722713e-07
 -9.528305360828604e-07
 -8.639539984534039e-07
 -3.222776753242229e-07
 -1.006609177123252e-07
 -2.822507012556486e-07
 -7.362862236570678e-07
 -3.506452281865080e-07
 -9.759408529097513e-07
 1.156983640004938e-07
 -4.947421554657438e-07
 -3.055463397849678e-07
 -6.273909851639559e-07
 -8.009292473687424e-07
 -5.133525475820022e-07
 -1.396341063886197e-07
 -3.663188103963932e-07
 -4.116050935643045e-07
 -6.257403447618159e-07
 -6.946097130811069e-08
 -7.014541916205985e-07
 -4.714854088816445e-07
 -5.321615568210092e-07
 -7.861336425163401e-07
 -4.313410233436343e-07
 -3.427995531324335e-07
 -1.053680309670568e-08
 -3.856028727988736e-07
 -9.151171080357123e-07
 -9.622882485849082e-07
 6.951363326068716e-07
 -3.574404660033892e-07
 -7.367982104988791e-07
 -6.786279999060341e-08
 -9.122633317093509e-07
 -2.722495057172480e-07
 -2.507321095190918e-08
 -9.646395939255648e-07
 -6.046812200954932e-07
 -3.270292697754584e-08
 -9.916009181543117e-07
 -4.231537780174932e-07
 -5.766565114306843e-08
 -1.837842589225147e-07
 -7.200672012541709e-07
 -6.439865871676886e-07
 -5.385478631936280e-07
 -7.765886771982089e-07
 -9.358609225351699e-07
 -9.490235457487728e-07
 -2.445473893941674e-07
 -2.247062331206529e-07
 -2.285800893009338e-07
 -2.158582376177165e-07
 -7.435566937719074e-07
 -5.379965967167166e-07
 -9.021749527993173e-07
 -7.387557842131187e-07
 -4.640766712027400e-07
 -9.916459152159440e-07
 -6.012754483197824e-08
 -6.534706165073345e-08
 -3.502503747032648e-07
 -9.610110501823144e-08
 -9.236886139296629e-07
 -8.161213960189428e-07
 -1.411640974113837e-07
 -9.210996027575469e-07
 -8.731001999162658e-07
 -1.427300749812233e-07
 -6.650779341699220e-07
 -2.009919379819536e-07
 -7.882166209727259e-07
 -4.415984893313407e-07
 1.231438544468944e-07
 1.345517265383123e-07
 7.309585298154175e-07
 8.006828947637601e-07
 5.761017285443870e-08
 8.006826606177242e-07
 8.600034753225572e-07
 2.674128539714715e-07
 5.435561553079893e-07
 8.600032196381946e-07
 3.341300888193288e-07
 3.460952580081056e-08
 1.384599689346899e-07
 1.384598675713278e-07
 3.341298062675691e-07
 4.737909767849047e-07
 9.197520763892797e-07
 1.076857659709773e-07
 7.133554319471713e-07
 1.076856137594007e-07
 4.737907430829580e-07
 7.199644278532702e-07
 9.746216359518556e-07
 4.112744123041523e-08
 1.056882498184919e-07
 1.056881808736421e-07
 4.112728135829968e-08
 7.199642786392957e-07
 3.637051830818194e-07
 5.039832637887542e-07
 2.690566777152625e-07
 1.603198661603855e-07
 6.728480272943926e-07
 1.603197570254622e-07
 2.690565007457124e-07
 3.637049644789059e-07
 4.010439133006471e-07
 1.640475536524022e-07
 6.620031891557687e-07
 4.741094148386082e-07
 9.908997218310844e-07
 9.908996991825347e-07
 4.741093091453763e-07
 6.620030863491166e-07
 4.010437248957999e-07
 4.962799668994933e-07
 2.711439400782112e-07
 4.034437788291712e-07
 6.807910758466207e-07
 9.076428036935980e-07
 3.080163524238344e-07
 9.076427904819440e-07
 6.807910108985737e-07
 4.034436229538585e-07
 4.962798539898117e-07
 9.346370499763168e-07
 7.617197603781989e-07
 7.409155511339804e-09
 8.583216035695784e-07
 7.686185401478696e-07
 7.209832306731556e-07
 7.209832278975981e-07
 7.686185197197659e-07
 8.583216024593554e-07
 7.408945679188150e-09
 9.346372125129676e-07
 6.240594969675328e-07
 8.083565615768507e-07
 6.400222103408737e-07
 4.317244317597613e-07
 2.388677673437201e-07
 9.697440106481992e-07
 5.007299016535072e-07
 9.697440320755035e-07
 2.388676578757298e-07
 4.317243618157107e-07
 6.400222318792004e-07
 6.240595715745201e-07
 3.570343514169849e-07
 1.374628333383754e-07
 4.398335251565300e-08
 3.431351163207808e-07
 3.696524305540905e-07
 9.727837901873926e-07
 5.337008867067894e-07
 5.337008869288340e-07
 9.727838423678747e-07
 3.696523552809694e-07
 3.431350342752992e-07
 4.398306452380041e-08
 3.570342892444955e-07
 5.615240175060876e-07
 8.851318303859657e-07
 9.528154553128942e-07
 8.284917624168386e-07
 9.261677769156762e-08
 9.793806359237323e-07
 7.085935105344277e-08
 8.520234263675874e-07
 7.085929887296061e-08
 9.793807449476333e-07
 9.261660860460097e-08
 8.284919693624104e-07
 9.528158209093363e-07
 5.615242307799306e-07
 8.552967654118504e-07
 4.864426716988390e-07
 5.064203518756472e-07
 2.913800405401901e-07
 7.202547779305846e-07
 9.119989093919756e-07
 5.823683689731851e-07
 1.123309123496341e-07
 1.123308881467722e-07
 5.823684170458421e-07
 9.119990815875667e-07
 7.202549378027001e-07
 2.913799836967712e-07
 5.064205264027066e-07
 8.552974313236206e-07
 6.115731717715178e-07
 8.991653515089126e-07
 7.441862174273339e-07
 5.266801299530499e-07
 8.994466771383713e-08
 3.674616122495422e-08
 1.204670901922000e-07
 6.026936704150998e-07
 5.618581723210170e-07
 6.026937093839280e-07
 1.204669969334660e-07
 3.674597703895444e-08
 8.994447131538408e-08
 5.266803606573944e-07
 7.441867471147390e-07
 6.115737215539596e-07
 1.631046288030902e-07
 9.650817608397588e-07
 5.346459412969295e-07
 9.855929941071651e-07
 1.944487201255285e-07
 8.894627206990080e-07
 2.332022420725721e-07
 4.344122883637169e-08
 1.706913577148583e-08
 1.706910046639365e-08
 4.344113724297216e-08
 2.332022246420706e-07
 8.894631274847242e-07
 1.944486601734852e-07
 9.855937950220550e-07
 5.346464064803769e-07
 1.631045423167166e-07
 6.446638477486388e-07
 8.171055716488240e-07
 9.826268101420510e-07
 3.865182518492105e-08
 8.160035621651573e-07
 6.314254008543685e-09
 4.475209662846424e-07
 1.694704112598089e-07
 8.420408814657776e-10
 8.656985401866990e-07
 8.420016905930083e-10
 1.694703631871519e-07
 4.475211362597875e-07
 6.314010536634385e-09
 8.160042785920751e-07
 3.865151787518784e-08
 9.826281121005920e-07
 6.446649399860505e-07
 9.956439122049687e-07
 8.424355394387462e-07
 6.454915343345746e-07
 6.722553713700563e-07
 1.307854516907625e-07
 5.664460543952643e-07
 1.217959746391273e-07
 8.893998524328595e-07
 9.242170344592182e-07
 8.459421119155763e-08
 8.459419786888134e-08
 9.242173103496398e-07
 8.894002980763815e-07
 1.217959020305415e-07
 5.664466066201967e-07
 1.307854220478077e-07
 6.722563765659828e-07
 6.454926125831761e-07
 9.956456773485556e-07
 9.079741967177313e-07
 7.565853955560087e-07
 9.890820544811163e-07
 5.935686941960228e-09
 5.539264281706480e-07
 2.428314623825756e-07
 2.752824241891716e-07
 6.108785738367928e-07
 4.201822634275487e-08
 7.761585942844818e-07
 1.324595184648558e-07
 7.761587961230276e-07
 4.201812942028482e-08
 6.108790742143100e-07
 2.752827042984407e-07
 2.428317771308031e-07
 5.539274019472629e-07
 5.935401281575992e-09
 9.890838028603355e-07
 9.079757607999284e-07
 3.232136547293152e-08
 1.156978478578097e-07
 9.695992684299881e-07
 8.755741831567576e-07
 4.090007643675619e-07
 5.814143743121392e-07
 6.970429697883418e-07
 4.469922137984028e-07
 6.745657097351199e-07
 1.738831865161217e-07
 8.318570042797901e-07
 8.318571415033560e-07
 1.738832687836478e-07
 6.745663286844561e-07
 4.469928592820693e-07
 6.970441485121270e-07
 5.814155852323921e-07
 4.090017304836380e-07
 8.755758711398443e-07
 9.696009863890964e-07
 3.232164169642004e-08
 9.075330428265360e-07
 6.951349321715483e-07
 9.170568525673772e-07
 8.458707235758922e-07
 1.630471745395212e-07
 2.969407423281112e-07
 9.979654765901458e-07
 9.930812202574302e-07
 6.381861112902953e-07
 2.594437766845203e-07
 4.632864916143120e-07
 5.190009191302636e-07
 4.632847178109856e-07
 2.594441422809624e-07
 6.381826020973591e-07
 9.930785974665568e-07
 9.979626297562660e-07
 2.969415749953797e-07
 1.630477077796399e-07
 8.458721637571998e-07
 9.170585022477695e-07
 9.075351264931086e-07
 6.851583296274555e-07
 -2.285795952516878e-07
 8.017068672261374e-07
 8.062277301323917e-07
 6.285359409607949e-07
 1.647273275562355e-07
 3.411920682649949e-07
 6.630030854326563e-07
 -3.199463176617456e-07
 -3.055101368554247e-07
 -7.317199879341985e-08
 7.178379113348399e-09
 7.181376160403374e-09