<?xml version="1.0"?>
<VTKFile type="UnstructuredGrid" version="0.1" byte_order="LittleEndian">
  <UnstructuredGrid>
    <Piece NumberOfPoints="5292" NumberOfCells="10580">
      <Points>
        <DataArray type="Float32" NumberOfComponents="3" format="ascii">
 -4.298944412292869e-01 4.512244392151130e-01 4.177660061174004e-02
 -4.065282231853447e-01 4.568187549039214e-01 6.311786476589039e-09
 -4.419250292741709e-01 4.485262627331098e-01 6.132911885961582e-09
 -3.918209172567231e-01 4.597776140259151e-01 4.481389919367840e-02
 -3.704483813528877e-01 4.644260045889030e-01 6.500569784443931e-09
 -4.174175763831508e-01 4.534531305310158e-01 8.594769529490609e-02
 -3.540506958047196e-01 4.673581090962993e-01 4.629941176501375e-02
 -3.334819762609231e-01 4.713781282485950e-01 6.682377204271152e-09
 -3.779300926123511e-01 4.619308491149757e-01 9.059429936925112e-02
 -4.042142338188863e-01 4.552164881204326e-01 1.318177071434644e-01
 -3.160431737333254e-01 4.741110574378501e-01 4.720219655726055e-02
 -2.957819778856893e-01 4.776274662097540e-01 6.851618457061230e-09
 -3.388315758886837e-01 4.693967660036226e-01 9.317212763935556e-02
 -3.638044887310983e-01 4.634860356236857e-01 1.372163478347233e-01
 -3.903185828931350e-01 4.564639870765592e-01 1.788268461566136e-01
 -2.776478639346633e-01 4.800767043289587e-01 4.779752156475114e-02
 -2.574847140383086e-01 4.831411609416926e-01 7.004527863094811e-09
 -2.997416676267873e-01 4.759621838929637e-01 9.478888128032181e-02
 -3.236968050209433e-01 4.707560179599738e-01 1.405044591124619e-01
 -3.491824656828063e-01 4.644721753250708e-01 1.845239926670905e-01
 -3.757355653570782e-01 4.571643809284862e-01 2.266169461889806e-01
 -2.388448022347313e-01 4.852626839918169e-01 4.819905652576630e-02
 -2.186928914604393e-01 4.878970924671145e-01 7.138378660479775e-09
 -2.604811955587892e-01 4.816807742898010e-01 9.585357996314985e-02
 -2.836662471748875e-01 4.770981206338406e-01 1.426335467114450e-01
 -3.082489822060761e-01 4.714968310387078e-01 1.882168311990475e-01
 -3.339605403765549e-01 4.648858838135482e-01 2.323509960244407e-01
 -3.604564640617243e-01 4.572942328434269e-01 2.749444080855263e-01
 -1.996619030722191e-01 4.896657480589350e-01 4.846831425062233e-02
 -1.794904239277223e-01 4.918796403074517e-01 7.251179621236429e-09
 -2.209788332019342e-01 4.865755997606744e-01 9.656254592283232e-02
 -2.435694745403288e-01 4.825583691194536e-01 1.440437990865644e-01
 -2.673936937220204e-01 4.775829504144761e-01 1.906671461912099e-01
 -2.923041718010070e-01 4.716350152013536e-01 2.362154682201875e-01
 -3.180845586197958e-01 4.647156638745681e-01 2.805419775190025e-01
 -3.444692372645620e-01 4.568348139185192e-01 3.236251658320746e-01
 -1.601469576682461e-01 4.932800847694384e-01 4.864483846070856e-02
 -1.399532876814413e-01 4.950789977270287e-01 7.341503031599927e-09
 -1.812204609641239e-01 4.906563957104259e-01 9.702961946392674e-02
 -2.033329846145257e-01 4.871634464132272e-01 1.449765692597719e-01
 -2.265150993865613e-01 4.827668953572323e-01 1.922986044586812e-01
 -2.507017250939120e-01 4.774405705118636e-01 2.388198781490871e-01
 -2.757633530638802e-01 4.711705606195580e-01 2.843984102219186e-01
 -3.015215571568247e-01 4.639477180923596e-01 3.289555942815789e-01
 -3.277629065390389e-01 4.557684909437622e-01 3.725067742269383e-01
 -1.203575875743428e-01 4.960988186898415e-01 4.875635831929866e-02
 -1.001547694057617e-01 4.974856054293392e-01 7.408366660738105e-09
 -1.412239443812727e-01 4.939243357603973e-01 9.732932152720843e-02
 -1.629296320882710e-01 4.909257294693706e-01 1.455824981917996e-01
 -1.855522394184114e-01 4.870704342444283e-01 1.933713273347299e-01
 -2.090857516872558e-01 4.823288220198780e-01 2.405560177669452e-01
 -2.334625833146908e-01 4.766766775208688e-01 2.870149689022324e-01
 -2.585684411419096e-01 4.700949399828435e-01 3.326612230747181e-01
 -2.842509632603190e-01 4.625678330278949e-01 3.774622039933811e-01
 -3.103297902263882e-01 4.540789332717261e-01 4.214544191743091e-01
 -8.035759243570498e-02 4.981172465421904e-01 4.882267744643292e-02
 -6.016844122399889e-02 4.990940396698271e-01 7.451132672771935e-09
 -1.010267056374685e-01 4.963785127377245e-01 9.751333394100235e-02
 -1.223633929874942e-01 4.938517379436614e-01 1.459633201777690e-01
 -1.444786483835513e-01 4.905066710997636e-01 1.940585639657167e-01
 -1.674108729911790e-01 4.863155217490451e-01 2.416878392943749e-01
 -1.911398038603222e-01 4.812505914075315e-01 2.887513051822906e-01
 -2.155992941855977e-01 4.752859070076871e-01 3.351704220538802e-01
 -2.406853303040709e-01 4.683982705014902e-01 3.809001417449414e-01
 -2.662613254632352e-01 4.605624898792103e-01 4.259407392890988e-01
 -2.921663237743347e-01 4.517512561978299e-01 4.703433658498526e-01
 -4.021482569283633e-02 4.993297004004682e-01 4.885723693982789e-02
 -2.006877800004826e-02 4.998993117609712e-01 7.469421426437252e-09
 -6.067845427459705e-02 4.980164375445639e-01 9.761727233060657e-02
 -8.165900880265002e-02 4.959417958844203e-01 1.461892401897578e-01
 -1.032939552241846e-01 4.930818353323214e-01 1.944802805927023e-01
 -1.256565903097396e-01 4.894115533474901e-01 2.424003417739733e-01
 -1.487643944475550e-01 4.849031546509313e-01 2.898678032107575e-01
 -1.725894915381410e-01 4.795287467122272e-01 3.368161448452220e-01
 -1.970661400474057e-01 4.732597542383689e-01 3.832018108686437e-01
 -2.220952640738771e-01 4.660666038306162e-01 4.290129058016255e-01
 -2.475481511345014e-01 4.579153910224417e-01 4.742756104386219e-01
 -2.732729661855707e-01 4.487706898354137e-01 5.190542955283116e-01
 7.418148007132589e-10 4.997343229673816e-01 4.886789804019807e-02
 2.006877945016213e-02 4.998993117465174e-01 7.463065364548369e-09
 -2.023669942196892e-02 4.988362800812776e-01 9.766374552052841e-02
 -4.085536241767327e-02 4.971961862812965e-01 1.463069361958101e-01
 -6.201688974672996e-02 4.947981598309930e-01 1.947185840613534e-01
 -8.382349176102621e-02 4.916214439800247e-01 2.428234240537601e-01
 -1.063237521867730e-01 4.876405539401400e-01 2.905532813206542e-01
 -1.295212925071617e-01 4.828284597111687e-01 3.378518612109615e-01
 -1.533818642962604e-01 4.771540141038831e-01 3.846803216378546e-01
 -1.778379918422011e-01 4.705854103969430e-01 4.310242021139195e-01
 -2.027910669168583e-01 4.630855020931896e-01 4.768993538629007e-01
 -2.281138488241826e-01 4.546136998480700e-01 5.223551625504962e-01
 -2.536541820900753e-01 4.451227722648110e-01 5.674701919014329e-01
 4.021482717612698e-02 4.993297003709333e-01 4.885723692766551e-02
 6.016844267348698e-02 4.990940396264451e-01 7.432063595293703e-09
 2.023670093706813e-02 4.988362800660737e-01 9.766374551467549e-02
 7.723771521285014e-10 4.976145764321940e-01 1.463432508869364e-01
 -2.067930337722831e-02 4.956565716275792e-01 1.948252155351990e-01
 -4.192858755638541e-02 4.929468983287184e-01 2.430439558020190e-01
 -6.382254763888023e-02 4.894650982868216e-01 2.909402074862008e-01
 -8.639104093958128e-02 4.851858167815590e-01 3.384643302408222e-01
 -1.096263453838153e-01 4.800793342976863e-01 3.855808145604868e-01
 -1.334879555814112e-01 4.741123637071659e-01 4.322739561798619e-01
 -1.579046832252220e-01 4.672477048622720e-01 4.785539720434159e-01
 -1.827748117023159e-01 4.594409846403398e-01 5.244616516534558e-01
 -2.079663307309854e-01 4.506421432781100e-01 5.700693576576015e-01
 -2.333186261318392e-01 4.407951124227765e-01 6.154741554657833e-01
 8.035759391796592e-02 4.981172464827323e-01 4.882267742208991e-02
 1.001547708540015e-01 4.974856053570396e-01 7.376582182285759e-09
 6.067845578894654e-02 4.980164374989430e-01 9.761727231303483e-02
 4.085536396201511e-02 4.971961862500072e-01 1.463069361844862e-01
 2.067930494934347e-02 4.956565716114559e-01 1.948252155297100e-01
 7.987797472030922e-10 4.933888587284413e-01 2.431120209931451e-01
 -2.127919675474025e-02 4.903776155596573e-01 2.911131016822518e-01
 -4.320979686267964e-02 4.866006739492225e-01 3.387818969403099e-01
 -6.580608358932158e-02 4.820319334127880e-01 3.860832636437657e-01
 -8.905056400996239e-02 4.766396319524931e-01 4.329982594232399e-01
 -1.128964753669851e-01 4.703865677957936e-01 4.795301199246813e-01
 -1.372675878554822e-01 4.632290250803371e-01 5.257104641262058e-01
 -1.620560844845980e-01 4.551162187918462e-01 5.716041194978398e-01
 -1.871194655135088e-01 4.459878193023364e-01 6.173089610704440e-01
 -2.122791554922095e-01 4.357765269779873e-01 6.629470554133675e-01
 1.203575890549792e-01 4.960988186022068e-01 4.875635828275690e-02
 1.399532891277721e-01 4.950789976252551e-01 7.296974723925076e-09
 1.010267071503073e-01 4.963785126615052e-01 9.751333391165987e-02
 8.165901034574753e-02 4.959417958217266e-01 1.461892401670638e-01
 6.201689131794023e-02 4.947981597825958e-01 1.947185840448587e-01
 4.192858915345477e-02 4.929468982954167e-01 2.430439557913470e-01
 2.127919837532320e-02 4.903776155424545e-01 2.911131016770713e-01
 8.208313578310528e-10 4.870726042943195e-01 3.388795541396557e-01
 -2.194074285685997e-02 4.830094117058179e-01 3.863054814281637e-01
 -4.454430191009135e-02 4.781596176889970e-01 4.333658209092874e-01
 -6.778487490033973e-02 4.724885267287063e-01 4.800538000158868e-01
 -9.160998059439469e-02 4.659553866710506e-01 5.263877562265484e-01
 -1.159378305790233e-01 4.585109209325162e-01 5.724182848881335e-01
 -1.406518455018476e-01 4.500954918277768e-01 6.182342815468317e-01
 -1.655930443893484e-01 4.406375857451961e-01 6.639640526928829e-01
 -1.905533624227317e-01 4.300559254272788e-01 7.097649024322825e-01
 1.601469591464116e-01 4.932800846509359e-01 4.864483841185996e-02
 1.794904253715248e-01 4.918796401763957e-01 7.193841935515908e-09
 1.412239458918203e-01 4.939243356534713e-01 9.732932148600242e-02
 1.223633945284940e-01 4.938517378493791e-01 1.459633201436044e-01
 1.032939567935702e-01 4.930818352515169e-01 1.944802805651107e-01
 8.382349335661622e-02 4.916214439133008e-01 2.428234240323436e-01
 6.382254925840959e-02 4.894650982351628e-01 2.909402074706187e-01
[...]
      <PointData>
        <DataArray type="Float32" Name="phi" format="ascii">
 -5.546414992285698e-07
 -6.522129453179204e-07
 4.824721496765605e-07
 -9.900011141983356e-07
 -9.708996892565658e-07
 -2.433250054778568e-07
 -4.846728966501068e-07
 -2.061722568225122e-07
 -3.533590215987203e-07
 -1.160535878508284e-08
 -6.449630929328265e-07
 -5.178231154423507e-07
 -8.125279997717172e-07
 -4.640836533953419e-07
 -5.053937509602591e-07
 -8.581769432858266e-07
 -4.822613225430317e-08
 -8.137930874174693e-07
 -7.316451130501278e-07
 -5.320008079623406e-07
 -5.744612198710364e-07
 -5.799284035212793e-07
 4.360633919509027e-07
 -2.792300092813171e-07
 -5.347605089300878e-07
 -4.090039025794745e-07
 -3.009411477239432e-07
 -7.762993426418952e-07
 -4.331451576855549e-07
 -4.327611470844595e-07
 -4.767900804170111e-07
 -9.927537780729523e-07
 -6.993063885185613e-07
 -4.610177944397442e-07
 -7.669411428157247e-08
 -3.227710632103253e-07
 -1.429569874700221e-07
 -1.106527792171796e-07
 -8.949035568139863e-09
 -6.892782626333194e-07
 -2.036410583494686e-07
 -8.959540485631301e-07
 -1.311177355578508e-08
 -3.421477252629757e-07
 -6.013090786405328e-08
 -6.869731608571961e-07
 -6.558638470655076e-07
 -2.894475655268458e-07
 -9.873882196864692e-07
 -5.295632510282644e-07
 -1.185543452297821e-08
 -1.696726913413826e-07
 -7.889083154521970e-07
 -9.800955362848640e-07
 -3.937129668396544e-07
 -4.521163571302722e-08
 -1.584724432790452e-07
 -4.687149695592474e-07
 -1.281338479763861e-08
 -7.654609018858949e-07
 -5.571556773720232e-07
 -2.317311486588203e-07
 -8.160798128931113e-07
 -3.133858987314220e-07
 -5.836132865866261e-08
 -3.842736899795085e-07
 -6.334706725841244e-07
 2.172339297334958e-08
 -7.336070951824425e-07
 -1.968978321498227e-07
 -7.690622651490564e-07
 -5.567353834057265e-07
 -5.846163139144878e-07
 -7.702077493010329e-07
 -9.609592170889414e-07
 -2.276823785063442e-07
 -8.669518230530748e-07
 -1.540417212120282e-07
 -5.303502504938606e-07
 2.172359314656092e-08
 -3.677500213794538e-07
 -4.978024166768513e-07
 -8.865312730588215e-07
 -5.860259983947458e-07
 -7.414361031798933e-07
 -1.676853598753247e-07
 -8.844226259130394e-07
 -7.089700834739254e-07
 -8.618215909250715e-07
 -3.780652834683984e-07
 -6.756885416181468e-07
 -6.334702770116607e-07
 -1.584718366531845e-07
 -3.677499517684701e-07
 -2.784043813819359e-07
 -4.504088525481009e-07
 -9.599729793308143e-07
 -9.086952271197823e-07
 -3.842228511463652e-07
 -3.500801131206543e-07
 -7.997526024761115e-07
 -2.414077537871151e-07
 -1.975790057673343e-07
 -7.483689789533621e-07
 -8.946236216278436e-07
 -4.521152147107799e-08
 -6.558626708952353e-07
 -7.336068489904868e-07
 -4.978022860036013e-07
 -4.504087841028515e-07
 -7.671094319761096e-07
 -5.555485507180435e-07
 -8.752419846658199e-07
 -7.019184607992557e-07
 -4.337705696855210e-07
 -3.386183359821437e-07
 -6.581769004809779e-07
 -4.187644517816835e-07
 -5.821213355239330e-07
 -1.752370765162325e-08
 -6.869696487776800e-07
 -1.106519044724585e-07
 -4.687147387438806e-07
 -1.968976686139712e-07
 -8.865310462957687e-07
 -9.599728330034196e-07
 -5.555484797192811e-07
 -7.002443668802094e-07
 -4.683127672322485e-07
 -1.044394465354870e-08
 -3.116069139386113e-07
 -7.232354951591802e-07
 -7.487417083007486e-07
 -2.641222573429580e-07
 -2.271559219613195e-07
 -4.618834229530577e-07
 -1.429551396148199e-07
 -4.327598534525912e-07
 -2.894472760917033e-07
 -1.281328521063330e-08
 -7.690619149847144e-07
 -5.860257732415164e-07
 -9.086950200076771e-07
 -8.752418408919382e-07
 -4.683127017290900e-07
 -9.041497363582174e-07
 -9.503203216021383e-07
 -6.377013243019647e-07
 -9.361284020181770e-07
 -6.066926889203295e-07
 -6.737771219289534e-07
 -2.782636392417714e-07
 -7.895996761431157e-07
 -4.331422064351997e-07
 4.360643958145616e-07
 -8.948918994722277e-09
 -9.873877117039243e-07
 -7.654604198825687e-07
 -5.567350346846744e-07
 -7.414357822144169e-07
 -3.842226564132467e-07
 -7.019182707290739e-07
 -1.044391295668134e-08
 -9.503202580418701e-07
 -6.798080702252740e-07
 -9.436485630121005e-07
 -6.360558800211358e-07
 -6.417307139017225e-07
 -3.095345582071474e-07
 -5.397111774163577e-07
 -4.409861249499158e-07
 -5.799253900429235e-07
 -4.822509702684386e-08
 -4.767895350754614e-07
 -6.892776626132857e-07
 -5.295627361068256e-07
 -5.571552140759550e-07
 -5.846158985800542e-07
 -1.676851147380809e-07
 -3.500798477773515e-07
 -4.337703406465110e-07
 -3.116067687769508e-07
 -6.377011880775996e-07
 -9.436484832425762e-07
 -7.237618595556938e-07
 -8.622545871195264e-07
 -3.508072400904005e-07
 -4.247161943249367e-07
 -4.741154794873914e-07
 -8.233982068395207e-08
 -8.581750627900675e-07
 -5.178218195345252e-07
 -2.792294913067650e-07
 -9.927529034947646e-07
 -2.036406243632882e-07
 -1.185526987690366e-08
 -2.317307616905850e-07
 -7.702072044035724e-07
 -8.844221067172420e-07
 -7.997521704328214e-07
 -3.386180594810995e-07
 -7.232352053354596e-07
 -9.361281637643160e-07
 -6.360557401885458e-07
 -8.622545115133384e-07
 -3.731567617681897e-07
 -3.946487522332731e-07
 -5.935650772004308e-07
 -3.065868772189617e-07
 -3.409147768529408e-07
 -6.449622060866744e-07
 -2.061719646673232e-07
 -8.137920895490147e-07
 -5.347597382132641e-07
 -6.993055685633465e-07
 -8.959531961894029e-07
 -1.696722578548027e-07
 -8.160791224454123e-07
 -9.609585566727752e-07
 -7.089695374107308e-07
 -2.414074046774850e-07
 -6.581764861457451e-07
 -7.487413411499944e-07
 -6.066924029823895e-07
 -6.417304996286788e-07
 -3.508071165780891e-07
 -3.946486878403377e-07
 -1.052508964427545e-07
 -7.334778950873755e-07
 -9.588679216743223e-07
 -4.838855593991553e-08
 -4.846719852680259e-07
 -9.708990037493592e-07
 -8.125268770031724e-07
 -7.316441160698517e-07
 -4.090031703318786e-07
 -4.610170590835239e-07
 -1.311154917971180e-08
 -7.889074992717404e-07
 -3.133853426762201e-07
 -2.276819034974231e-07
 -8.618209075272887e-07
 -1.975786060870455e-07
 -4.187640019193140e-07
 -2.641219101207071e-07
 -6.737767314080045e-07
 -3.095343014125618e-07
 -4.247159895998109e-07
 -5.935649372013074e-07
 -7.334778339140868e-07
 -9.586806204442411e-07
 -1.106549314400240e-07
 -9.290186070431972e-07
 -9.899996796236543e-07
 -6.522121659968683e-07
 -3.533582237924549e-07
 -4.640828095703320e-07
 -5.319999231145900e-07
 -3.009404502263280e-07
 -7.669367402263205e-08
 -3.421470410880367e-07
 -9.800945676152750e-07
 -5.836094202349429e-08
 -8.669509937719866e-07
 -3.780646769535601e-07
 -7.483682681885817e-07
 -5.821207195721989e-07
 -2.271555053501295e-07
 -2.782632461673096e-07
 -5.397107656346378e-07
 -4.741151685694334e-07
 -3.065866989171440e-07
 -9.588678134830886e-07
 -1.106549403773194e-07
 -1.125841342375367e-07
 -8.129512396592986e-09
 -5.546410509205124e-07
 4.824716047791000e-07
 -2.433245493427272e-07
 -1.160515233911141e-08
 -5.053929211240593e-07
 -5.744603088775335e-07
 -7.762983064152351e-07
 -3.227703243013913e-07
 -6.013047770814239e-08
 -3.937122032837692e-07
 -3.842729495717734e-07
 -1.540411759259896e-07
 -6.756877145575046e-07
 -8.946227559869513e-07
 -1.752345951677725e-08
 -4.618827931790470e-07
 -7.895990001838271e-07
 -4.409855987042022e-07
 -8.233954429393009e-08
 -3.409144617161353e-07
 -4.838845141241777e-08
 -9.290186743227125e-07
 -8.129676709600631e-09
 -7.453396305701077e-07
 6.901988292007388e-07
 3.768749333721289e-07
 5.570576007141170e-07
 5.019816652351849e-07
 -1.893151292953199e-07
 -2.787918815805313e-07
 -4.799631503904500e-07
 -8.246296973601908e-07
 -5.473617643025896e-07
 -2.736432796468513e-07
 -4.777799134103589e-07
 -5.442172080760699e-07
 -1.234036906549996e-07
 -3.828762521473905e-07
 -6.117142507533480e-07
 -4.803576181267033e-08
 -9.493734394183662e-07
 -4.077685913372875e-07
 -6.994885476951929e-07
 -4.047155243713796e-07
 -2.530443873327570e-07
 -1.996892890487878e-07
 -9.759792444774540e-07
 -8.819757133515793e-07
 -6.481462697660589e-07
 -9.391553809634523e-07
 -2.625476164253016e-08
 -5.623858297942874e-07
 -8.796670980526500e-08
 -9.319665074669636e-07
 -8.330902293574027e-07
 -8.369285778297986e-07
 -5.045306873951994e-07
 -9.571906736116631e-07
 -4.973641832828335e-07
 -3.318219293224622e-07
 -8.990969834199447e-07
 -9.991444493984147e-07
 -6.348928517918573e-07
 -7.887486647151221e-07
 -5.955159615433914e-07
 -2.151445649967165e-07
 -8.382367978621019e-07
 -6.646377136432235e-07
 -7.105142884045179e-07
 -9.472183402081669e-07
 -2.516416242048791e-07
 -5.049944771240433e-07
 -7.455369822606528e-07
 -5.971426673134772e-07
 -1.887011278900452e-07
 -8.169387403778039e-07
 -5.879824735988137e-07
 -5.378936296374093e-07
 -6.733822437432480e-07
 -6.275038270109334e-07
 -2.353988759473680e-07
 -4.422911548118691e-08
 -9.842088086742251e-07
 -7.732341640309670e-07
 -2.808694785638721e-07
 -9.399053881864461e-07
 -5.611989477016799e-07
 -3.712624862539649e-07
 -4.529516984264070e-07
 -4.946158297380876e-07
 -9.447306708598724e-07
 -7.509564378671563e-07
 -9.784429449988252e-08
 -5.412400350124358e-08
 -7.255849534537617e-07
 -2.062945935188409e-07
 -3.353192189470278e-07
 -5.810420677931916e-08
 -6.659783466367308e-07
 -4.324150835732787e-07
 -2.852303798706046e-07
 -3.473445553403565e-07
 -5.437865194801716e-07
 -5.820888328011975e-07
 -7.949519131300598e-07
 -4.739546631271629e-07
 -8.358488709503398e-07
 -7.353498626683219e-08
 -5.369635940333239e-07
 -4.606444160559775e-07
 -8.265521853068059e-07
 -2.744790227882099e-07
 -7.237985630292876e-07
 -2.589036119382548e-07
 -9.895153397776468e-07
 -5.807131021606793e-07
 -5.467553265137148e-07
 -5.020740121430833e-07
 -6.520026830103554e-07
 -2.242749219671936e-08
 -3.757219476652196e-07
 -9.864546983706646e-07
 -3.243949870390672e-07
 -7.000248063437908e-07
 -4.557282709538590e-07
 -5.594895423621793e-07
 -5.475361921081223e-07
 -3.969919319390947e-07
 -3.343937745592385e-07
 -4.029405200611791e-07
 -4.122701324771327e-08
 -5.678384836782513e-07
 -1.840981003198294e-07
 -2.160974537090965e-07
 -4.942402733743023e-07
 -7.942552586737150e-07
 -3.181809861696472e-07
 -3.837809626205946e-07
 -6.910576667018553e-07
 -7.390786811445338e-07
 -5.890572983835440e-07
 -8.513618172667492e-07
 -4.063118685948552e-08
 -7.614498864771946e-08
 -1.181350817724969e-07
 -5.171701596418110e-07
 -7.325212892927979e-07
 -4.570574828055562e-07
 -7.657227623081297e-07
 -8.054314853955802e-08
 -5.924536226054045e-07
 -7.711813774236020e-07
 -9.569429796352225e-07
 -5.497361562634140e-07
 -5.550401094289725e-07
 -5.444059034687143e-07
 -6.061101215371067e-08
 -9.771665753222081e-07
 -4.225085288300789e-07
 -3.472783813851521e-07
 -8.294614921577903e-07
 -2.686240224702985e-07
 -7.015165564006054e-07
 -2.278588551174465e-07
 -2.752762233715345e-07
 -1.871303893508092e-07
 -3.160175821026456e-08
 -8.031029756772057e-07
 -2.859457748360938e-07
 -4.477120441048754e-08
 -1.526172288546235e-07
 -1.320622825540241e-07
 -3.886259394847436e-07
 -9.374896390856868e-07
 -9.354057314281405e-07
 -3.783940812351894e-07
 -8.821755507759654e-07
 -3.590046951940096e-07
 -8.761633256693102e-07
 -2.394122660120956e-07
 -2.654633991516775e-07
 -6.700557554917275e-07
 -1.605667789839060e-07
 -4.192118691070945e-08
 -4.726841591473629e-07
 -4.685818840721723e-07
 -5.879360357452512e-07
 -6.213325423054528e-07
 -4.976178631932449e-07
 -1.914958437376768e-07
 -4.879540931312931e-07
 -3.214804428219864e-08
 -5.902810609192954e-07
 -4.059022497004960e-07
 -9.068073117957098e-07
 -1.431251265282540e-07
 -1.740573151165492e-07
 -3.254782844352988e-07
 -6.768116452282591e-07
 -9.480888891744144e-07
 -9.847532003171011e-07
 -8.740875617752053e-07
 -9.720280533809245e-07
 -3.392209734220941e-07
 -8.561130654394233e-07
 -3.226434935887923e-07
 -9.971984258339006e-07
 -2.311262273235748e-07
 -5.640120349648114e-07
 -7.047820764771728e-07
 -7.832703982080247e-07
 -3.406894386603909e-07
 -9.583758445175228e-07
 -8.941415496899197e-08
 -7.968048317263943e-07
 5.413802683928992e-07
 -4.478386859130268e-07
 -4.138964381228405e-07
 -2.433866501672100e-07
 -4.431527856341155e-07
 -9.303127629922692e-07
 -7.193559087292911e-07
 -7.998602553072054e-07
 -5.394579346562622e-07
 -1.978582417905272e-07
 -7.516937435281257e-07
 -2.404563153035610e-07
 -7.657472320676817e-07
 -6.176785479761193e-07
 -3.660197198107618e-07
 -7.827316998998413e-07
 -8.490620929668680e-07
 -6.781242843922897e-07
 -1.086403010330805e-07
 -8.843515562073634e-07
 3.499843858056906e-07
 -9.316383138835427e-07
 -7.102573995609873e-07
 -9.326625877159600e-07
 -9.258962349600885e-07
 -2.618118074004805e-07
 -2.237489061251985e-07
 -5.015866527680046e-07
 -4.455454918339541e-07
 -2.872402926623607e-09
 -1.918057817018592e-07
 -1.842559578246750e-07
 -6.976774247213768e-08
 -3.526194828906704e-07
 -2.422974396676381e-07
 -9.486418916515582e-07
 -6.275463555471816e-07
 -2.084460315465719e-07
 -3.879058727562779e-07
 -7.686443193599679e-07
 -8.192862494538211e-07
 9.967521745757324e-07
 -8.070780791458176e-07
 -1.415488374290064e-07
 -4.367691476825364e-07
 -3.911404791168138e-07
 -1.132678357773642e-07
 -2.761976047871428e-07
 -7.592922536270308e-07
 -6.321441431422770e-08
 -4.396327496491992e-07
 -4.303372242997483e-07
 -4.432018846922681e-07
 -4.490010349633700e-07
 -5.350120463321062e-07
 -2.467284693219440e-07
 -9.915537708682365e-07
 -9.929712450063022e-07
 -2.653231229721165e-07
 -8.554665354987279e-07
 -1.437050503039217e-07
 -3.935471848404148e-07
 -4.997480017587819e-07
 -9.040372545010555e-07
 -7.876087899649775e-07
 -5.109670818681522e-07
 -6.239613959957424e-07
 -9.007707256758479e-07
 -5.284759330148603e-07
 -1.128356295065913e-07
 -3.880805585776415e-07
 -4.988549173745582e-07
 -6.676543040651239e-07
 -6.289787374269551e-07
 -7.900144661787678e-07
 -9.933552458929462e-07
 -1.936858983198064e-07
 -4.196674400214206e-07
 -4.935002402284283e-07
 -9.719144913322708e-07
 -1.891588365388053e-07
 -6.447877187731876e-08
 -8.418370704976752e-07
 -5.020018789547720e-09
 -9.641646243618851e-07
 6.901988733876152e-07
 6.840225437176883e-07
 5.570576319113840e-07
 -2.410014299236707e-09
 -1.893145684106479e-07
 -2.409993316021541e-09
 -7.308224462265756e-07
 -8.246289335267498e-07
 -1.409828448983852e-07
 -7.308222976232237e-07
 -9.059841456493523e-07
 -5.441244831372316e-07
 -1.968880722902355e-07
 -1.968862176071617e-07
 -9.059852967285842e-07
 -3.125557377359200e-07
 -9.451636020507692e-07
 -5.507557909179006e-07
 -2.294284056070239e-07
 -5.507557895856330e-07
 -3.125848533347408e-07
 -2.974480385886658e-07
 -9.760719058560241e-07
 -1.803936604538592e-07
 -6.971823026669099e-07
 -6.971815519896118e-07
 -1.803934340793845e-07
 -2.974443974457230e-07
 -9.114142254795787e-07
 -9.319661615214692e-07
 -3.333274573025236e-07
 -5.551414393178966e-07
 -2.720149215873491e-07
 -5.551412012860801e-07
 -3.333270945371503e-07
 -9.114135706700388e-07
 -4.440123402282836e-07
 -9.991453349122992e-07
 -2.660835365375647e-07
 -9.201784474943686e-07
 -2.937301305516726e-07
 -2.937300028205136e-07
 -9.201778328193910e-07
 -2.660830711875839e-07
 -4.440117054027581e-07
 -7.783833871899404e-08
 -2.516423843190729e-07
 -1.762054981924166e-07
 -1.799731095264434e-07
 -2.897565470894037e-08
 -6.391894958324151e-07
 -2.897554540748359e-08
 -1.799726886408948e-07
 -1.762049457454395e-07
 -7.783786509785173e-08
 -4.945492565466836e-08
 -2.353998582171890e-07
 -3.270215045980684e-07
 -6.593190421400053e-07
 -8.414949738133615e-07
 -9.250891030432307e-07
 -9.250885762424055e-07
 -8.414940704803975e-07
 -6.593180701397472e-07
 -3.270205967687012e-07
 -4.945437293013555e-08
 -9.939391351632132e-07
 -7.509581604892013e-07
 -2.150366014141980e-07
 -5.923983584232850e-07
 -2.871993037834031e-08
 -4.677910062644841e-07
 -5.738465813642790e-09
 -4.677903776006964e-07
 -2.871963328265892e-08
 -5.923971096444269e-07
 -2.150355427610329e-07
 -9.939373598610857e-07
 -3.774866085271000e-07
 -5.820908753340071e-07
 -8.841741858112151e-07
 -9.855413414250336e-07
 -1.166412414987938e-07
 -7.446885595951969e-07
 -4.252304337537538e-07
 -4.252299941054360e-07
 -7.446872994920639e-07
 -1.166404867691817e-07
 -9.855395801672273e-07
 -8.841721192420771e-07
 -3.774848416626675e-07
 -5.966237402454944e-07
 -5.467578835238740e-07
 -5.642050859844261e-08
 -7.318883776807894e-09
 -9.177432539475561e-07
 -5.596443213851110e-07
 -6.449182418100108e-07
 -7.539037529813442e-07
 -6.449171717215485e-07
 -5.596428354626148e-07
 -9.177413145544655e-07
 -7.304632565485747e-09
 -5.641916367427058e-08
 -5.966211902297403e-07
 -6.911408388377005e-07
 -4.122853880517141e-08
 -4.461026768542986e-07
 -6.250542745611654e-07
 -7.631426824361576e-07
 -5.211476539757065e-07
 -9.726508642948772e-07
 -7.007353596266697e-07
 -7.007347176957168e-07
 -9.726491412287430e-07
 -5.211457679288323e-07
 -7.631402195173997e-07
 -6.250513269190350e-07
 -4.460997835020741e-07
 -6.911374677565085e-07
 -6.958127851675044e-08
 -5.171742258891499e-07
 -5.411283872658323e-07
 -6.996655581570366e-07
 -9.202484981818415e-07
 -5.891283627601496e-07
 -4.216356985220493e-07
 -1.931103287833302e-07
 -7.161312440828738e-07
 -1.931093989715471e-07
 -4.216339997142882e-07
 -5.891259566292995e-07
 -9.202453237766584e-07
 -6.996618934773657e-07
 -5.411244680120220e-07
 -6.957896631076821e-08
 -9.229431570112467e-07
 -2.686285019981582e-07
 -1.318443484388254e-07
 -4.020927822923070e-07
 -6.547282677127342e-07
 -2.985536114441523e-07
 -5.290802047586141e-07
 -1.069533735464923e-07
 -7.086077798423851e-07
 -7.086072167927782e-07
 -1.069521068375323e-07
 -5.290780750732971e-07
 -2.985507762121031e-07
 -6.547244806309749e-07
 -4.020884697419902e-07
 -1.318407384931497e-07
 -9.229372616159637e-07
 -6.458433366995919e-07
 -8.761706146720449e-07
 -3.909413516245408e-07
 -8.218966359163637e-07
 -1.368732049367161e-07
 -8.832000637504223e-07
 -3.997686344181517e-07
 -9.677575287803108e-07
 -7.361840424491284e-07
 -3.152318540644572e-07
 -7.361832059515905e-07
 -9.677558986398438e-07
 -3.997660840693307e-07
 -8.831966234468247e-07
 -1.368697117865025e-07
 -8.218910689805625e-07
 -3.909348431641035e-07
 -6.458360764516335e-07
 6.617628878213822e-07
 -1.740654606563474e-07
 2.174454182268803e-07
 -2.716017513115787e-07
 -2.880572657071312e-07
 -7.719657740268282e-07
 -9.843437359657869e-07
 -6.755166411243074e-07
 -7.476153293661802e-07
 -8.360568733989382e-07
 -8.360565951215371e-07
 -7.476144943119323e-07
 -6.755149925541382e-07
 -9.843411505894295e-07
 -7.719618926871341e-07
 -2.880521879355946e-07
 -2.715954655618802e-07
 2.174523303644094e-07
 6.617702033029360e-07
 9.263975344619979e-07
 5.413724094571748e-07
 5.334477285456884e-07
 -6.653160992686757e-07
 -7.026702484869141e-07
 -3.505771457579243e-07
 -7.849503418366766e-07
 -9.446669785861950e-07
 -3.862687896205586e-07
 -2.740453937111198e-07
 -8.082886657212462e-07
 -2.740451052196669e-07
 -3.862678457644542e-07
 -9.446654671840804e-07
 -7.849474657484201e-07
 -3.505729209707376e-07
 -7.026651199781853e-07
 -6.653111557231028e-07
 5.334556063552043e-07
 9.264062146296936e-07
 9.816775725646210e-09
 3.499774499093888e-07
 1.282399626489905e-07
 3.508835511034647e-08
 -3.302281159633935e-08
 -9.648071408463466e-08
 -9.602242090345214e-08
 -2.594806819411488e-07
 -9.221751241517140e-07
 -6.663435368481352e-07
 -7.007070684794670e-07
 -7.007072601039610e-07
 -6.663436977194515e-07
 -9.221747434007277e-07
 -2.594785640241959e-07
 -9.602010109244219e-08
 -9.647785520483509e-08
 -3.301991441384544e-08
 3.509378476707070e-08
 1.282454860085380e-07
 9.818484247858805e-09
 1.185472109366259e-07
 9.967404583921535e-07
 7.436489489753839e-07
 -5.566945644464028e-07
 -1.807483496207851e-07
 -9.839346081785827e-07
 -1.948699870357729e-07
 -1.825606489869180e-07
 -7.451473414410437e-07
 -3.686938508384863e-07
 -1.923620906452150e-07
 -9.299264306372734e-07
 -1.923622223731769e-07
 -3.686938229718884e-07
 -7.451469464236915e-07
 -1.825594718174450e-07
 -1.948684853481097e-07
 -9.839325507132735e-07
 -1.807456847524591e-07
 -5.566908206633414e-07
 7.436550976125389e-07
 1.185520875912616e-07
 1.084458904898611e-07
 -9.040368355028860e-07