<?xml version="1.0"?>
<VTKFile type="UnstructuredGrid" version="0.1" byte_order="LittleEndian">
  <UnstructuredGrid>
    <Piece NumberOfPoints="5292" NumberOfCells="10580">
      <Points>
        <DataArray type="Float32" NumberOfComponents="3" format="ascii">
 -3.861889348197412e-01 4.611550781072135e-01 2.136409978312559e-02
 -3.710907428505519e-01 4.642986526178565e-01 3.876940478520059e-09
 -3.930165151808733e-01 4.597657378507778e-01 3.789228032911977e-09
 -3.589346375612675e-01 4.666057994903415e-01 2.519590661232069e-02
 -3.431106521382690e-01 4.696475568690687e-01 3.980898697212701e-09
 -3.773118807577044e-01 4.627598296949069e-01 4.860412486415825e-02
 -3.287264392441773e-01 4.721233838593270e-01 2.755173895122734e-02
 -3.120515677961597e-01 4.750323380712076e-01 4.085977475345764e-09
 -3.469769887376341e-01 4.685957392712813e-01 5.364880197670772e-02
 -3.672278618467397e-01 4.643229053795449e-01 7.883809582913127e-02
 -2.963071078677695e-01 4.774467901248666e-01 2.920124461149855e-02
 -2.789268508917856e-01 4.801558005252032e-01 4.186115907235951e-09
 -3.147672763145413e-01 4.742002796000048e-01 5.725643084170726e-02
 -3.346655744058433e-01 4.703272614896338e-01 8.443043918060382e-02
 -3.561831873460482e-01 4.657379203375990e-01 1.111130989129428e-01
 -2.622145415328823e-01 4.823978417628771e-01 3.043047580543537e-02
 -2.442691408711019e-01 4.848533948785987e-01 4.277741221539479e-09
 -2.809505656511205e-01 4.794445364598766e-01 5.995968610530681e-02
 -3.007563940113512e-01 4.759326020869626e-01 8.872857093665036e-02
 -3.218356570871284e-01 4.717897098674182e-01 1.169696714760129e-01
 -3.442783181058914e-01 4.669407556452400e-01 1.449540307568769e-01
 -2.268238014697204e-01 4.868553883742117e-01 3.137242741680252e-02
 -2.084302564081401e-01 4.890183646878495e-01 4.358380080362189e-09
 -2.458178528935828e-01 4.842164836529586e-01 6.203949742300795e-02
 -2.656333259580800e-01 4.810589603868086e-01 9.208208137936731e-02
 -2.864575161118648e-01 4.773274833768789e-01 1.216428738326242e-01
 -3.084149045539371e-01 4.729586158969938e-01 1.509069694493476e-01
 -3.315578120608592e-01 4.678835865048990e-01 1.800677847485565e-01
 -1.904159616086930e-01 4.907348614813575e-01 3.209903213903605e-02
 -1.716733192632706e-01 4.925769482517571e-01 4.426209165173483e-09
 -2.096227964361785e-01 4.884304096688041e-01 6.365489100826217e-02
 -2.294745429180787e-01 4.856322267822715e-01 9.471623778244509e-02
 -2.501359192647165e-01 4.822983214025615e-01 1.253734737894526e-01
 -2.717365160318512e-01 4.783770357211122e-01 1.557523149390148e-01
 -2.943588141675259e-01 4.738087995902815e-01 1.859972160829697e-01
 -3.180378487546024e-01 4.685264041776354e-01 2.162510465082787e-01
 -1.532161824101831e-01 4.939764589188788e-01 3.265322554617357e-02
 -1.342109444555652e-01 4.954760605775638e-01 4.479861846499423e-09
 -1.725812014166148e-01 4.920219178055362e-01 6.490247293889308e-02
 -1.924593396622721e-01 4.895905871840824e-01 9.677740836923490e-02
 -2.129952856653418e-01 4.866502849964798e-01 1.283363640994553e-01
 -2.343128724439272e-01 4.831584604147302e-01 1.596649515331706e-01
 -2.565054701710503e-01 4.790652702476098e-01 1.908686004490546e-01
 -2.796317913222245e-01 4.743131928243560e-01 2.220608359480529e-01
 -3.037181859760157e-01 4.688359917709151e-01 2.533511926433413e-01
 -1.154143581449099e-01 4.965363067963788e-01 3.306217821787489e-02
 -9.622476991464249e-02 4.976794604017311e-01 4.518330761640756e-09
 -1.348798150748051e-01 4.949441390275600e-01 6.584409550320107e-02
 -1.547557404672551e-01 4.928868758181089e-01 9.836311313161362e-02
 -1.751710566094376e-01 4.903390241829569e-01 1.306564848970065e-01
 -1.962411455251080e-01 4.872659904451233e-01 1.627820598883977e-01
 -2.180609521123869e-01 4.836277439520795e-01 1.948154770185419e-01
 -2.406998556884369e-01 4.793731436506585e-01 2.268437833466761e-01
 -2.642016591237311e-01 4.744457000224342e-01 2.589579482276154e-01
 -2.885874672278292e-01 4.687801774294241e-01 2.912455720105483e-01
 -7.717765182598536e-02 4.983845656258690e-01 3.334347238241087e-02
 -5.787652098319122e-02 4.991616001617557e-01 4.540903298710920e-09
 -9.668424206591641e-02 4.971629796333672e-01 6.652043632230897e-02
 -1.165185407374007e-01 4.954843994881432e-01 9.953948103594859e-02
 -1.367980504563552e-01 4.933291453821975e-01 1.324228949151902e-01
 -1.576301571593033e-01 4.906687070451283e-01 1.652082842328935e-01
 -1.791072657791357e-01 4.874698871278399e-01 1.979481623199001e-01
 -2.013024822647935e-01 4.836893750290049e-01 2.307069715871988e-01
 -2.242684183147309e-01 4.792788169435573e-01 2.635569270642763e-01
 -2.480378156816582e-01 4.741801560289658e-01 2.965730143752490e-01
 -2.726272972998659e-01 4.683284698885701e-01 3.298289671156324e-01
 -3.865840233047793e-02 4.995012311045988e-01 3.350817365411311e-02
 -1.931556418994459e-02 4.999067129925145e-01 4.547131781107446e-09
 -5.814530085666229e-02 4.986546882798590e-01 6.695803067074592e-02
 -7.789126510576833e-02 4.973574538081302e-01 1.003512686668687e-01
 -9.800622554394989e-02 4.955933238387433e-01 1.336985540127745e-01
 -1.185914101121237e-01 4.933402173603461e-01 1.670217387773314e-01
 -1.397356606107300e-01 4.905696976132556e-01 2.003546446535956e-01
 -1.615122471398131e-01 4.872455136287956e-01 2.337422465076162e-01
 -1.839771935324886e-01 4.833253815282690e-01 2.672387255554885e-01
 -2.071691256484579e-01 4.787590360154377e-01 3.009047008976231e-01
 -2.311112682930945e-01 4.734891878475633e-01 3.348046293775239e-01
 -2.558150717109963e-01 4.674510450209220e-01 3.690046766299032e-01
 3.708340306829438e-09 4.998748344370821e-01 3.356241851335549e-02
 1.931557158199744e-02 4.999067129212231e-01 4.536827094669932e-09
 -1.940404407006764e-02 4.994043432183528e-01 6.717300579275047e-02
 -3.900872242041674e-02 4.984878052899406e-01 1.008274578286684e-01
 -5.892006187693991e-02 4.971131791350278e-01 1.345266154772906e-01
 -7.923531378167663e-02 4.952616135581978e-01 1.682790226758868e-01
 -1.000403602364650e-01 4.929093329834121e-01 2.021025558576337e-01
 -1.214073123826185e-01 4.900259228470489e-01 2.360248701434310e-01
 -1.433928793422283e-01 4.865746921337353e-01 2.700829451404457e-01
 -1.660378035910692e-01 4.825119317060942e-01 3.043219770246439e-01
 -1.893678647278430e-01 4.777881796660093e-01 3.387942667274749e-01
 -2.133961458206013e-01 4.723460497506335e-01 3.735581558803274e-01
 -2.381267703452400e-01 4.661189223219409e-01 4.086773994351901e-01
 3.865840973880492e-02 4.995012309634712e-01 3.350817362145200e-02
 5.787652835865887e-02 4.991615999481668e-01 4.510049931516489e-09
 1.940405151668560e-02 4.994043431429427e-01 6.717300577020290e-02
 3.745318421185845e-09 4.988658727348768e-01 1.009844260932020e-01
 -1.965929998684165e-02 4.978758757006182e-01 1.349341099743491e-01
 -3.966970072502848e-02 4.964199837844837e-01 1.690185558446180e-01
 -6.011546334757843e-02 4.944765587630002e-01 2.032411342067161e-01
 -8.106761198318253e-02 4.920200180066719e-01 2.376134629732022e-01
 -1.025825553766748e-01 4.890191387676632e-01 2.721558931860475e-01
 -1.247012541948668e-01 4.854354483470090e-01 3.068974449921978e-01
 -1.474495417393076e-01 4.812259298933819e-01 3.418759033308077e-01
 -1.708393764224389e-01 4.763405217385364e-01 3.771378562115262e-01
 -1.948715068498272e-01 4.707213083203165e-01 4.127392642022452e-01
 -2.195396913419157e-01 4.643015843343066e-01 4.487464746570022e-01
 7.717765920919661e-02 4.983845653406955e-01 3.334347231734593e-02
 9.622477725716248e-02 4.976794600468864e-01 4.467095008001648e-09
 5.814530828661801e-02 4.986546880780192e-01 6.695803060367471e-02
 3.900872990227704e-02 4.984878051450007e-01 1.008274577711477e-01
 1.965930752710176e-02 4.978758756272513e-01 1.349341099390242e-01
 3.802424623473132e-09 4.968069674412589e-01 1.692626264374626e-01
 -2.005364389085552e-02 4.952622776824169e-01 2.038024841872935e-01
 -4.057245916260980e-02 4.932196574915106e-01 2.385498677683912e-01
 -6.161264482729734e-02 4.906519003967071e-01 2.735087183592153e-01
 -8.321494536882756e-02 4.875256977831102e-01 3.086913501754908e-01
 -1.054043478452400e-01 4.838030193992717e-01 3.441191759518752e-01
 -1.281904531195610e-01 4.794395927753798e-01 3.798235862049298e-01
 -1.515690932329421e-01 4.743866120219694e-01 4.158477260880672e-01
 -1.755249664813339e-01 4.685855622878865e-01 4.522484516473174e-01
 -2.000366627724451e-01 4.619703283291291e-01 4.890995593689771e-01
 1.154143654867376e-01 4.965363063705500e-01 3.306217812099029e-02
 1.342109517492602e-01 4.954760600837317e-01 4.408498255477765e-09
 9.668424946155965e-02 4.971629792766598e-01 6.652043621094790e-02
 7.789127256165820e-02 4.973574535272009e-01 1.003512685525928e-01
 5.892006939905348e-02 4.971131789155742e-01 1.345266153716917e-01
 3.966970832042378e-02 4.964199836359547e-01 1.690185557604871e-01
 2.005365156641032e-02 4.952622776069781e-01 2.038024841380633e-01
 3.881284283788984e-09 4.936200585585973e-01 2.388592089385174e-01
 -2.054800599905049e-02 4.914692769189464e-01 2.741763010254888e-01
 -4.163134626181115e-02 4.887803912913771e-01 3.097489321552426e-01
 -6.327453080782541e-02 4.855203051949922e-01 3.455809055264249e-01
 -8.548515581681448e-02 4.816493492938573e-01 3.816857688384537e-01
 -1.082542482727675e-01 4.771253784927874e-01 4.180892927868826e-01
 -1.315573128135850e-01 4.718977832428310e-01 4.548322941227130e-01
 -1.553575216068138e-01 4.659110471455822e-01 4.919756299195065e-01
 -1.796109359479583e-01 4.590976403657986e-01 5.296052421173132e-01
 1.532161896948959e-01 4.939764583549983e-01 3.265322541830716e-02
 1.716733264929913e-01 4.925769476218900e-01 4.335071553076508e-09
 1.348798224201159e-01 4.949441385300493e-01 6.584409534885269e-02
 1.165185481484659e-01 4.954843990375152e-01 9.953948086530347e-02
 9.800623302992903e-02 4.955933234737018e-01 1.336985538379707e-01
 7.923532134879117e-02 4.952616132618593e-01 1.682790225084900e-01
 6.011547100339683e-02 4.944765585370478e-01 2.032411340595152e-01
[...]
      <PointData>
        <DataArray type="Float32" Name="phi" format="ascii">
 3.865410864722918e-07
 6.473602011114465e-07
 5.800539903955126e-08
 5.541444225709569e-08
 1.151515442998630e-07
 4.167398233168029e-07
 2.036180266618004e-07
 -4.650911832326798e-07
 4.773945672109647e-08
 8.822571262445678e-07
 -6.824042509956385e-07
 -7.203697983126922e-07
 -4.596747101293097e-07
 1.000491465230624e-07
 4.347436757257128e-07
 -6.307721097664754e-07
 -6.643584421484050e-07
 -3.374237398379165e-07
 3.897946585507128e-07
 5.788810741869099e-07
 3.789534872566946e-07
 -4.255649539430806e-07
 -4.921028613491529e-07
 -2.745745893983909e-07
 2.252691291282360e-07
 2.267654676257891e-07
 2.288064375743915e-07
 8.162116116317009e-07
 -5.060440057547133e-07
 -3.582853713712808e-08
 -1.791732723854800e-07
 1.946804480956743e-07
 3.324708893748252e-07
 3.844851700351981e-07
 8.827420042711864e-07
 1.339136832534393e-07
 2.390570452703855e-08
 -6.579832492192850e-07
 -6.557025935549632e-07
 -5.114430572383810e-07
 5.450433109288610e-07
 5.450033688791933e-07
 3.327925290896872e-07
 9.824361626442624e-07
 4.818978723841738e-07
 -2.422266883739255e-07
 -7.062159206872032e-07
 -8.840244202779068e-07
 -3.185720901521805e-07
 7.483759203452678e-07
 2.871443938179397e-08
 8.944330949223200e-07
 5.657585877560933e-07
 7.515370339383765e-07
 8.466699561449076e-07
 -3.907099153654947e-07
 -5.480073521635376e-07
 -6.957103226845618e-07
 -3.327188715096518e-07
 9.942486595138078e-07
 4.771873040043673e-07
 9.269215914819995e-07
 1.025457573300415e-07
 5.868691195232145e-07
 6.981597332478273e-07
 8.547103123035527e-07
 -2.936142445841838e-07
 -1.110005143356574e-08
 -2.595135540905957e-07
 2.598898013461692e-07
 3.850219988388304e-07
 2.705674319036788e-07
 7.246634958768539e-07
 6.924913931172227e-07
 9.941592771234298e-07
 7.611154552167321e-07
 4.003924958251304e-08
 4.014117195305644e-07
 1.930399295968499e-08
 -1.109982605829174e-08
 3.684487858146568e-07
 1.745362648852833e-07
 4.593123207330407e-07
 1.001975243886122e-07
 2.305224489074220e-08
 1.755022388527649e-07
 5.759188254073067e-07
 2.191882081392649e-07
 1.956123327762072e-07
 6.935833130050639e-07
 8.159393535267512e-07
 -2.936103106754295e-07
 -5.480069473207116e-07
 3.684419668248395e-07
 5.078064768682111e-07
 6.681053887902522e-08
 7.258944919596999e-07
 3.929397518476208e-07
 7.682514779894234e-08
 7.665394706757311e-07
 5.819209961677174e-07
 6.156115675004514e-07
 9.565880029205331e-07
 9.301299223052339e-07
 4.045828546628272e-07
 -3.907095648680858e-07
 -7.062157839077265e-07
 -2.594861265303727e-07
 1.745365419969502e-07
 6.681054620649718e-08
 9.561760285770049e-07
 6.222760929874838e-07
 1.098294074575179e-07
 4.157312188945994e-07
 6.088248892810455e-07
 8.741559993641346e-07
 1.438517596152877e-07
 6.506303412701087e-07
 1.790800897571998e-07
 1.415118212610977e-07
 -2.422265174550908e-07
 -6.579830834074762e-07
 -6.957079398128840e-07
 2.599065640485065e-07
 4.593128374308364e-07
 7.258945482480073e-07
 6.222761086416284e-07
 1.292438380762206e-07
 2.425955145657355e-07
 1.043113140308805e-07
 9.138076327852573e-07
 2.753126385757199e-07
 8.906812190012658e-07
 3.468867904032891e-07
 8.586722016756809e-07
 6.003745252058934e-07
 2.390580999822589e-08
 -3.582841912042056e-08
 -8.840231629503315e-07
 -3.327560108012939e-07
 3.850216356848790e-07
 1.001975271641697e-07
 3.929397756063935e-07
 1.098294090118301e-07
 2.425955197837837e-07
 9.132562025504498e-07
 4.687980743600662e-07
 2.950059506678926e-07
 9.246736644152875e-07
 2.662970626232664e-07
 6.990004118856419e-07
 5.638752051950746e-07
 7.952431904101331e-07
 -5.060436759629638e-07
 -4.921026002246975e-07
 -6.557021348108094e-07
 -3.185779705594527e-07
 9.942958937303459e-07
 2.705679696957120e-07
 2.305224644505444e-08
 7.682515268392365e-08
 4.157312373243016e-07
 1.043113184717726e-07
 4.687980832418503e-07
 2.675597188250833e-08
 9.723611723577719e-07
 2.661152734839689e-07
 4.423947839171660e-07
 3.482769439511202e-07
 2.520037295505873e-07
 7.090702405232463e-07
 -4.255645728590274e-07
 -6.643581032528267e-07
 -1.791728608813159e-07
 -5.114422171326183e-07
 7.483808764918720e-07
 4.771881764176200e-07
 7.246636383184679e-07
 1.755022560612218e-07
 7.665395332923097e-07
 6.088249269176060e-07
 9.138076796366690e-07
 2.950059663220372e-07
 9.723611931189424e-07
 5.065546629934303e-07
 1.327695482444824e-07
 6.591884823548000e-07
 6.654986397514051e-07
 6.501914352474714e-07
 2.347456586893060e-07
 -6.307715587627882e-07
 -7.203693609403317e-07
 -2.745740137477526e-07
 1.946813508180156e-07
 5.450387247085686e-07
 2.871443594010259e-08
 9.269218197438533e-07
 6.924914874861798e-07
 5.759188872467291e-07
 5.819210480151327e-07
 8.741560789671254e-07
 2.753126576715559e-07
 9.246737192603049e-07
 2.661152874727790e-07
 1.327695527963968e-07
 4.729345817189312e-07
 7.870752760652522e-07
 7.713719161195343e-07
 8.822746926373526e-07
 3.155968610890625e-07
 -6.824034795016587e-07
 -4.650906728631554e-07
 -3.374229695651820e-07
 2.252686971404572e-07
 3.324649320290973e-07
 5.450033584430969e-07
 8.944333094174084e-07
 1.025457720960077e-07
 9.941594226736683e-07
 2.191882391144873e-07
 6.156116456601524e-07
 1.438517801544137e-07
 8.906813110387546e-07
 2.662970937095110e-07
 4.423948302134662e-07
 6.591885374218620e-07
 7.870753242489315e-07
 2.290236040813909e-07
 6.130006857674175e-07
 -9.258025640002110e-07
 -7.496219358027467e-07
 2.036186196319179e-07
 1.151520687692198e-07
 -4.596736499773435e-07
 3.897982244760456e-07
 2.268031654706348e-07
 3.844856080181813e-07
 3.327925968132917e-07
 5.657586915619461e-07
 5.868692239952011e-07
 7.611155782294432e-07
 1.956123629742734e-07
 9.565881428086342e-07
 6.506304340847535e-07
 3.468868491340871e-07
 6.990005146922940e-07
 3.482770009055614e-07
 6.654987496634845e-07
 7.713720544533231e-07
 6.130006593441095e-07
 -8.138929356027447e-07
 -5.941088060401611e-08
 -7.922412441629945e-07
 5.541582281942681e-08
 6.473609668322666e-07
 4.774214779068586e-08
 1.000584398669346e-07
 5.788813108864588e-07
 2.288065988897969e-07
 8.827422701696008e-07
 9.824364166632904e-07
 7.515371953648042e-07
 6.981598739130845e-07
 4.003925968554256e-08
 6.935834419019571e-07
 9.301300863961970e-07
 1.790801351653215e-07
 8.586723648784655e-07
 5.638753273196073e-07
 2.520038023812177e-07
 6.501916210988057e-07
 8.822748930326085e-07
 -9.257979554089246e-07
 -5.941084219029946e-08
 -4.009106501223769e-07
 -4.741458330403958e-07
 3.865439620609479e-07
 5.800600022531910e-08
 4.167439751068258e-07
 8.822580889189524e-07
 4.347439315210977e-07
 3.789536251463943e-07
 8.162118900756354e-07
 1.339137212230668e-07
 4.818980006149332e-07
 8.466701553189182e-07
 8.547105044831582e-07
 4.014118175632575e-07
 8.159395264994984e-07
 4.045829585797023e-07
 1.415118691117101e-07
 6.003746787497377e-07
 7.952434046831769e-07
 7.090704721157692e-07
 2.347457972451394e-07
 3.155971305401906e-07
 -7.496196447465131e-07
 -7.922407682103838e-07
 -4.741455703616282e-07
 5.334546671065254e-08
 -1.100977380374957e-07
 3.121285908624927e-07
 8.860075328964712e-08
 8.924730088288868e-08
 -1.978442193961705e-07
 9.238006968281809e-07
 7.109197945887047e-07
 9.087525143502972e-08
 8.779014847304367e-07
 4.768993219217421e-07
 4.708472237657801e-07
 -6.490831794270235e-08
 6.212201523192462e-07
 9.920626687920375e-07
 6.550392078752409e-07
 2.026529115628506e-07
 7.027332581399648e-07
 5.507502183199620e-07
 5.366189126387866e-07
 8.140105048903834e-07
 7.477298384905851e-07
 4.754598457168413e-07
 6.704396697809756e-07
 5.343718519901230e-07
 3.293341759302848e-07
 5.895283214929492e-07
 2.080983974028783e-07
 4.909535495922768e-07
 4.087254861229184e-07
 1.200073889151554e-07
 9.217973272468427e-07
 6.479010550286546e-09
 8.987705594210027e-07
 1.828601827735810e-07
 9.249733438077001e-07
 2.697572352161615e-07
 1.282635263555321e-07
 1.479694006212284e-07
 -2.759648365380230e-08
 5.605172451739193e-07
 6.800523867367403e-07
 4.952765431109896e-08
 1.642290541337132e-07
 8.756401373988254e-07
 6.652462225531508e-08
 4.245688287607408e-07
 5.824053295189202e-08
 9.501012909751694e-08
 3.844112539397315e-08
 7.608347826204565e-07
 8.585259569926507e-08
 8.066194590039544e-08
 8.468894845403696e-07
 6.102140567287861e-07
 7.533280822480393e-07
 4.918869460635023e-07
 7.057286249834149e-07
 4.625371338162765e-07
 7.779178943234655e-07
 3.781647728295923e-07
 4.150669347113833e-07
 7.613074826107180e-08
 6.426221190736214e-07
 3.527262066871373e-07
 5.344107019134015e-07
 7.698498709629575e-07
 8.300200093902532e-08
 7.839654019292652e-07
 1.742947137728379e-07
 8.179547381637065e-07
 3.804657225936481e-07
 7.594044004743949e-07
 5.684561716901015e-07
 9.097880037112205e-07
 8.928366033167379e-07
 6.633003259981507e-07
 6.836761811124248e-07
 9.142735040157390e-07
 9.194207617468919e-07
 7.396342737164829e-07
 5.347586429227391e-08
 5.915066477735209e-07
 9.269188624427827e-07
 9.132179590309875e-08
 1.808854632745494e-08
 9.498877938662886e-07
 4.674024954853806e-07
 8.126132490238192e-07
 3.658831885244851e-07
 7.377031260302758e-07
 6.126003462281204e-07
 7.708604786715867e-07
 -5.418651427557819e-08
 3.692768905105837e-07
 8.537630846738864e-08
 9.780572328699222e-07
 9.748311584623082e-07
 8.201739714053247e-07
 3.266175946370353e-07
 9.056404048912725e-08
 8.006643800184676e-07
 3.592568381671768e-07
 7.187924496721010e-07
 7.145842578770711e-07
 7.562922165194053e-07
 -7.002704527359072e-10
 5.131385382162179e-07
 1.331599532861105e-07
 3.750833811322352e-07
 9.541799076417945e-07
 4.778084421452888e-07
 9.116606318748666e-07
 6.120760998040709e-08
 7.979045441031118e-07
 2.604911317760639e-07
 5.915607405038159e-07
 8.286553261349638e-07
 9.993081333536935e-07
 4.656372825095900e-07
 3.521332119227338e-07
 3.561116606043413e-07
 5.699397944702866e-07
 4.711192326256608e-07
 3.365509889663443e-07
 8.307312946431722e-07
 5.955079274144737e-07
 9.175863336929879e-07
 7.677449487264454e-07
 9.482964394846860e-07
 6.942945314225568e-07
 7.146973305394155e-07
 8.479507608294412e-07
 3.835890012293675e-07
 1.719863588212078e-07
 3.812653719403869e-07
 2.703295020056729e-07
 4.362039829342024e-07
 5.027703015025864e-07
 9.906049112107240e-07
 3.729816817621412e-07
 6.192017698580798e-07
 9.439785353393404e-07
 1.050029866389579e-07
 9.698861898055355e-07
 3.257619612950791e-07
 5.003075568277282e-07
 4.839068146189618e-08
 8.159837217025512e-08
 5.129645430645979e-08
 9.416928613559250e-07
 1.519193026933152e-07
 4.030310126745817e-07
 3.481735456611901e-07
 1.300426717421033e-07
 6.254046236442434e-07
 1.723391186425616e-07
 6.935446544842350e-07
 4.726542591759753e-07
 4.031207441190787e-07
 6.134746887154208e-07
 8.236394466454300e-07
 6.589377390397999e-07
 4.721274392549546e-07
 2.292937204551038e-07
 5.712050847872518e-07
 1.500443048696454e-07
 9.612024254312956e-08
 3.591536781311078e-07
 8.548752254977643e-07
 7.665032639714298e-07
 4.841109118025599e-07
 1.541009654326686e-07
 7.030644522121321e-08
 2.456331510414245e-07
 2.250031594375201e-08
 5.978061266009860e-07
 3.719285202041789e-07
 7.830377313222669e-08
 5.173105999123351e-07
 6.030320642835818e-07
 8.790371985867296e-08
 4.017918447951629e-07
 3.627127225236393e-07
 4.404821105641332e-07
 3.339819164560609e-07
 7.499046972281320e-07
 1.888529916893589e-07
 6.741119865649736e-07
 4.021298922740613e-07
 2.737309479083905e-07
 4.535491887613929e-07
 -1.773039975949686e-08
 8.431734113134581e-07
 8.866570273546870e-07
 6.652014206132151e-07
 7.999966495919608e-07
 7.946941700254229e-07
 1.149108946885136e-07
 8.379186312579279e-07
 8.371847832755464e-07
 6.084660302274614e-07
 8.725041914514620e-07
 2.746701669442686e-07
 3.690880567841504e-08
 1.316377182813966e-07
 5.601359885920587e-07
 1.410404811830190e-07
 8.938648521361614e-08
 4.305734623288870e-07
 7.561105699327442e-07
 6.628919639872777e-07
 -9.949836202727269e-07
 7.964550916561564e-07
 9.429002572058920e-07
 6.745451437417671e-07
 7.949198258527801e-07
 4.732455780587230e-07
 8.448766135593644e-07
 4.830523363530403e-07
 2.164167010043627e-07
 8.407828331336020e-07
 1.981679174090090e-07
 8.550414671848472e-07
 3.180672188962674e-07
 4.249503214870387e-07
 9.730737828839153e-07
 4.910933271151663e-08
 6.675252798293840e-07
 4.002608556818998e-07
 3.769444973933389e-07
 9.301862977650899e-07
 9.072259048448217e-07
 -1.049558163712661e-07
 5.046362653304826e-07
 8.191633853460445e-07
 1.227711881046645e-07
 2.137271216673398e-07
 5.467774824019500e-07
 4.085210012494400e-07
 6.908504102121071e-08
 1.788167975913524e-07
 9.525443147584411e-07
 9.798904732072344e-08
 7.175018579275161e-07
 4.475643557988462e-07
 6.907275720280381e-07
 1.604302404256686e-07
 1.761105625774917e-07
 4.972200438047025e-07
 2.740534844614118e-07
 3.725245212304884e-08
 8.239354976069535e-07
 1.601142403107048e-07
 3.358707653111637e-07
 8.364250921877314e-07
 8.157995016189190e-07
 8.907282167402997e-07
 3.091427017709591e-07
 7.839067306392167e-07
 2.781042196531303e-08
 4.577133412286827e-07
 9.465863518576256e-07
 2.326276746789091e-07
 8.844753250913939e-07
 9.402296542448951e-07
 3.044684426800615e-07
 5.453467044613802e-07
 2.897494000286827e-08
 5.334719282990008e-07
 5.532017779419363e-07
 4.298834026528198e-07
 5.137678553701619e-07
 1.239492185556301e-07
 2.872631427175421e-07
 6.370589537008087e-07
 7.595753530598159e-07
 -1.100970454803729e-07
 5.763691079962996e-09
 8.860104527830259e-08
 -4.089261908535313e-07
 -1.978441193095648e-07
 -4.089262275464023e-07
 -4.001726620073143e-07
 9.087519858841375e-08
 -4.417650705801357e-07
 -4.001726523483740e-07
 4.641686907058684e-07
 -6.490845072537610e-08
 -1.254990969479231e-07
 -1.254990396049038e-07
 4.641688727824445e-07
 -3.578543422699809e-07
 7.027328237096953e-07
 -4.966414570706235e-07
 2.099498718211024e-07
 -4.966413731377628e-07
 -3.578541916682276e-07
 -4.004914805344484e-08
 6.704390894674006e-07
 -3.522701433333886e-07
 -5.787976554705310e-07
 -5.787976050664057e-07
 -3.522699562052978e-07
 -4.004881315466946e-08
 -3.773517775473856e-07
 1.200068469042748e-07
 -1.028064139374507e-08
 -1.847346802197336e-07
 -2.979474543751692e-07
 -1.847344970329345e-07
 -1.028027729610415e-08
 -3.773515008242967e-07
 3.109064382611493e-07
 1.479687055105927e-07
 -3.388670520854120e-07
 1.550298446284515e-07
 3.334273857014125e-08
 3.334286002854014e-08
 1.550302121122726e-07
 -3.388666472980972e-07
 3.109071781137729e-07
 -7.457591955084553e-08
 5.823974646990138e-08
 1.644284566282295e-07
 -3.644893649679126e-07
 -5.761729284237127e-07
 1.494805537127775e-07
 -5.761727348563284e-07
 -3.644889388643158e-07
 1.644292156877114e-07
 -7.457519213271979e-08
 3.162229976760855e-07
 7.057272015664751e-07
 2.823918321404051e-08
 -6.517115038184862e-07
 -1.677161052815457e-07
 -8.787934485665616e-08
 -8.787918559516328e-08
 -1.677156675206071e-07
 -6.517111086346006e-07
 2.824010147950418e-08
 3.162241534182542e-07
 4.434035026923411e-07
 7.839636474438194e-07
 -5.332016124182104e-07
 -5.991094503832173e-07
 -2.652301268057933e-07
 -4.914189874472008e-07
 -8.920149167090941e-07
 -4.914186860771608e-07
 -2.652294928684462e-07
 -5.991088156132029e-07
 -5.332009783698410e-07
 4.434050125956546e-07
 -2.592333009920900e-07
 7.396322185826421e-07
 -2.731717552162394e-08
 -6.098183063518725e-07
 -6.613519179521354e-07
 -2.613699051634555e-08
 -5.153296206983349e-07
 -5.153294440063405e-07
 -2.613636795878449e-08
 -6.613512177899850e-07
 -6.098174724633587e-07
 -2.731573828240741e-08
 -2.592322103089906e-07
 8.249964678075372e-08
 -5.418770271381490e-08
 -1.608443737644016e-07
 -5.420477621753683e-07
 -2.786587642300553e-07
 -3.318490434667254e-07
 -4.615676387209611e-07
 -5.077878286741111e-07
 -4.615672144492322e-07
 -3.318481783254335e-07
 -2.786575339364106e-07
 -5.420465535865837e-07
 -1.608427139809798e-07
 8.250150651534227e-08
 -3.537673493037019e-08
 5.131361092702846e-07
 -2.589371296268794e-07
 -7.247232466922604e-07
 -6.978516057798423e-07
 -6.372188215419960e-07
 -3.174648589565621e-07
 -8.771671421436977e-07
 -8.771669344209698e-07
 -3.174640756942182e-07
 -6.372177299152071e-07
 -6.978503021559668e-07
 -7.247221440187523e-07
 -2.589352166015857e-07
 -3.537473414194636e-08
 6.246949239008259e-07
 5.699370502210144e-07
 3.670501125263570e-07
 1.932059127129904e-07
 -5.747347606166464e-07
 -9.029053108511320e-07
 -1.658108844115880e-07
 -5.099880235892584e-07
 -1.199174381460999e-07
 -5.099874366698565e-07
 -1.658096308587709e-07
 -9.029040773933517e-07
 -5.747328660765660e-07
 1.932087526634874e-07
 3.670532778832225e-07
 6.246982786617394e-07
 6.854821091861751e-07
 5.027676075464171e-07
 3.902083128837219e-07
 6.980367839304336e-08
 -2.081281558763415e-07
 -3.847056528338832e-07
 -3.506712354939268e-07
 -7.336792344214693e-07
 -4.742237986743447e-07
 -4.742234561705416e-07
 -7.336783060529761e-07
 -3.506695318011843e-07
 -3.847034031334573e-07
 -2.081252998831218e-07
 6.980712652371324e-08
 3.902122180932110e-07
 6.854861377414423e-07
 3.688722394201704e-07
 6.254017930196198e-07
 4.478374970862120e-08
 -9.685150764715544e-08
 -7.377099107697127e-07
 -2.994551003276946e-07
 -5.586666923518280e-07
 -7.711306883595448e-07
 -1.739006117995601e-07
 -6.445861020498711e-07
 -1.738997881806092e-07
 -7.711293314449641e-07
 -5.586645392963163e-07
 -2.994521204335854e-07
 -7.377070307401645e-07
 -9.684738339066357e-08
 4.478811443942021e-08
 3.688764982356929e-07
 -4.786890631103269e-07
 7.029694115701091e-08
 -2.344727402237012e-07
 -7.376530921088253e-07
 -4.225405304536523e-07
 -6.861330716367853e-07
 -9.418065919364338e-07
 -6.990841304732598e-07
 -5.383065153075073e-07
 -3.434306197203085e-07
 -3.434301931171113e-07
 -5.383053183205533e-07
 -6.990823011032710e-07
 -9.418045321396562e-07
 -6.861298524896142e-07
 -4.225362752463546e-07
 -7.376486769183899e-07
 -2.344675728571666e-07
 -4.786853735061491e-07
 -3.183409692519845e-07
 -1.779846564575749e-08
 -7.791152495939535e-07
 -8.697098611287757e-07
 -9.220082317629164e-07
 -6.349617076573111e-07
 -8.699053983263205e-07
 -2.384518631992627e-07
 -5.588896182517900e-07
 -3.826875799584073e-07
 -6.483557230541059e-07
 -3.826867771561382e-07
 -5.588881570317561e-07
 -2.384492959750517e-07
 -8.699029960812510e-07
 -6.349576390785039e-07
 -9.220033904133729e-07
 -8.697088502707118e-07
 -7.791147181301916e-07
 -3.183413684881842e-07
 -2.835541460521895e-07
 -9.949710976231430e-07
 -1.728641121356844e-07
 -4.973126443985620e-07
 -8.226543621869808e-07
 -7.235644275960240e-07
 -6.054399552257728e-07
 2.665186521477736e-07
 -9.947460277714981e-08
 3.781676496394937e-07
 -2.446478747364367e-08
 -2.446442365355850e-08
 3.781689236204144e-07
 -9.947271589760831e-08
 2.665212719410448e-07
 -6.054365556118491e-07
 -7.235635315905320e-07
 -8.226536573618937e-07
 -4.973124707596810e-07
 -1.728640788289937e-07
 -2.835541348389370e-07
 -9.852584547109799e-07
 -1.049567225908099e-07
 -1.750519612597756e-08
 -2.195058361742497e-07
 -7.553646762525901e-07
 -6.662979346039322e-07
 -7.902272474713534e-07
 -2.585580993197389e-07
 -7.270204780418510e-07
 -1.052708845095118e-07
 -7.982378941173707e-08
 2.212628096298630e-07
 -7.982316202470585e-08
 -1.052773165866050e-07
 -7.270270331871664e-07
 -2.585578723346416e-07
 -7.902264286263616e-07
 -6.662975754467837e-07
 -7.553646159674798e-07
 -2.195057944298640e-07
 -1.750509670550571e-08
 -9.852582739111604e-07
 -2.192814737567161e-07
 8.364250804193674e-07
 -5.613338267540513e-07
 -1.498753340323233e-07
 -9.478596461054423e-07
 -7.724891288862779e-07
 -8.995720809368279e-07
 -3.869603598660731e-08
 -9.789263502590906e-07
 -2.615445063858246e-07
 -3.601304375822068e-07
 -1.789711245869796e-08
 -1.789278791797244e-08
 -3.601820116050369e-07
 -2.615454210430634e-07
 -9.789267741977525e-07
 -3.869601983286231e-08
 -8.995721562654602e-07
 -7.724891682991952e-07
 -9.478596864620492e-07
 -1.498752522088864e-07
 -5.613337114018790e-07
 -2.192812454948623e-07
 3.865455371343529e-07