<?xml version="1.0"?>
<VTKFile type="UnstructuredGrid" version="0.1" byte_order="LittleEndian">
  <UnstructuredGrid>
    <Piece NumberOfPoints="5292" NumberOfCells="10580">
      <Points>
        <DataArray type="Float32" NumberOfComponents="3" format="ascii">
 -3.903504918873261e-01 4.602440973905003e-01 2.713490312327510e-02
 -3.732725946977078e-01 4.638606266275951e-01 5.693032018338384e-09
 -3.981155086266291e-01 4.586680145710396e-01 5.585185749324967e-09
 -3.607404771772389e-01 4.662183138679482e-01 3.102477975009653e-02
 -3.438022132830655e-01 4.695207727121231e-01 5.812398090368607e-09
 -3.809271205426438e-01 4.618774577467199e-01 5.943849405295962e-02
 -3.291473657305579e-01 4.720089508934998e-01 3.323887563318895e-02
 -3.117995895895962e-01 4.750737877990664e-01 5.930484428696902e-09
 -3.486635372119904e-01 4.681268335970436e-01 6.471435572109177e-02
 -3.704162036900845e-01 4.633629997469301e-01 9.451546393033711e-02
 -2.958892395185385e-01 4.774703512444463e-01 3.474869160162861e-02
 -2.780943701305672e-01 4.802765202749030e-01 6.041580214757454e-09
 -3.151996124844378e-01 4.739670879095794e-01 6.823265287642721e-02
 -3.362724767434986e-01 4.696910930590805e-01 1.003988137567980e-01
 -3.590082516026692e-01 4.646052307348885e-01 1.314560811551735e-01
 -2.613104682147686e-01 4.824791102870868e-01 3.585694598506418e-02
 -2.431240435725685e-01 4.849973790427111e-01 6.142309528869370e-09
 -2.806076515137953e-01 4.793308499811147e-01 7.076993165300531e-02
 -3.012721150201204e-01 4.754905193696629e-01 1.046725049070686e-01
 -3.233648115774515e-01 4.709081301822741e-01 1.376140831377825e-01
 -3.467782038788689e-01 4.655452452502823e-01 1.697987267663641e-01
 -2.256846915882711e-01 4.869465537552417e-01 3.669582391118970e-02
 -2.071752942073993e-01 4.891517338865046e-01 6.230339182101589e-09
 -2.450342464652913e-01 4.841513142915939e-01 7.267521905841258e-02
 -2.654528182613135e-01 4.807183705723481e-01 1.078797625052144e-01
 -2.870615906653408e-01 4.766011673492983e-01 1.423060524294674e-01
 -3.098587171165968e-01 4.717554767674227e-01 1.760401239518629e-01
 -3.337567267435071e-01 4.661398248023756e-01 2.092544443815491e-01
 -1.892279551897311e-01 4.908085297553483e-01 3.733570542015770e-02
 -1.704625743447036e-01 4.926818948932972e-01 6.303949335510684e-09
 -2.086390552171733e-01 4.883714284914923e-01 7.412868869458870e-02
 -2.288951775906228e-01 4.853338471727563e-01 1.103296682222123e-01
 -2.501341494583116e-01 4.816555229252343e-01 1.459184255660453e-01
 -2.724113797590582e-01 4.772949497424047e-01 1.809260086102284e-01
 -2.957068736176197e-01 4.722095170524744e-01 2.154451008016768e-01
 -3.199527050808019e-01 4.663518582015786e-01 2.496171555109254e-01
 -1.521182855861946e-01 4.940198625099140e-01 3.781875781615567e-02
 -1.331601121791689e-01 4.955471919581575e-01 6.361849281529160e-09
 -1.715735603351796e-01 4.919463610928770e-01 7.523495070700180e-02
 -1.917016227670455e-01 4.892987994494387e-01 1.122061553976382e-01
 -2.126407892016898e-01 4.860439079257519e-01 1.487071127668688e-01
 -2.344743187867010e-01 4.821442986827874e-01 1.847433195733615e-01
 -2.572265324130690e-01 4.775593536950085e-01 2.203616194232035e-01
 -2.808738612951165e-01 4.722452021297930e-01 2.556502915003340e-01
 -3.053633046140899e-01 4.661509218235731e-01 2.907264229143036e-01
 -1.145087464211698e-01 4.965476805728209e-01 3.817200386248441e-02
 -9.541779315245696e-02 4.977183846599496e-01 6.403084241124048e-09
 -1.339772159187250e-01 4.948427533027971e-01 7.605982298509405e-02
 -1.539818437665300e-01 4.925823624428026e-01 1.136254168720524e-01
 -1.746567024676452e-01 4.897402215050380e-01 1.508419354119979e-01
 -1.960977086093934e-01 4.862831315071763e-01 1.877021813624858e-01
 -2.183562525858250e-01 4.821755217244008e-01 2.242270032713556e-01
 -2.414413525245305e-01 4.773759477251873e-01 2.604690804265903e-01
 -2.653296604836238e-01 4.718379056062953e-01 2.965095892555152e-01
 -2.899781210928316e-01 4.655081885449990e-01 3.324481904275191e-01
 -7.653608610535030e-02 4.983687745622632e-01 3.841319873027758e-02
 -5.737037165054734e-02 4.991762369024762e-01 6.426985399210510e-09
 -9.597867211100695e-02 4.970354883469223e-01 7.664649692604952e-02
 -1.158456566227121e-01 4.951605234297173e-01 1.146641154350938e-01
 -1.362666630723201e-01 4.927229310457438e-01 1.524380811964215e-01
 -1.573434025813012e-01 4.896952198097181e-01 1.899538481019178e-01
 -1.791431947240638e-01 4.860456191942860e-01 2.272164784987850e-01
 -2.016976426695224e-01 4.817367941311205e-01 2.642551051252687e-01
 -2.250069454478396e-01 4.767261139336263e-01 3.011236734896522e-01
 -2.490477390725335e-01 4.709642552977364e-01 3.378969908946108e-01
 -2.737822864048709e-01 4.643961951163326e-01 3.746634155088957e-01
 -3.832652106699616e-02 4.994671283781784e-01 3.855368325108398e-02
 -1.914324632690755e-02 4.999083735544272e-01 6.433136908179368e-09
 -5.769836448909981e-02 4.985059480404940e-01 7.702328249134567e-02
 -7.740043525864464e-02 4.970139670661368e-01 1.153734813709750e-01
 -9.755968036727569e-02 4.949743337088131e-01 1.535745943478655e-01
 -1.182809358833147e-01 4.923646458668685e-01 1.916065676326912e-01
 -1.396413098847223e-01 4.891570901742007e-01 2.294635645004252e-01
 -1.616876703250367e-01 4.853182426284734e-01 2.671581009263672e-01
 -1.844379019788558e-01 4.808096588831374e-01 3.047234533911549e-01
 -2.078853115190015e-01 4.755875478694501e-01 3.422132718119508e-01
 -2.320046097136115e-01 4.696000193657306e-01 3.796981315980295e-01
 -2.567587687668398e-01 4.627885185971645e-01 4.172603288064415e-01
 1.492020495652562e-09 4.998343507437643e-01 3.859982720324084e-02
 1.914324929081750e-02 4.999083735261287e-01 6.421359431518772e-09
 -1.925121150423664e-02 4.992443541380435e-01 7.720754623249637e-02
 -3.875100387148215e-02 4.981314450765376e-01 1.157866735454921e-01
 -5.862630563878356e-02 4.964829047849478e-01 1.543048287069966e-01
 -7.898471679611392e-02 4.942798739396584e-01 1.927366781295197e-01
 -9.991013882638436e-02 4.914996624760599e-01 2.310675403053574e-01
 -1.214600520745031e-01 4.881122305752428e-01 2.692968389958192e-01
 -1.436654784810182e-01 4.840843035022396e-01 3.074412190923632e-01
 -1.665328178000267e-01 4.793747786095391e-01 3.455357494867961e-01
 -1.900479683882938e-01 4.739383650492442e-01 3.836337553547515e-01
 -2.141808228090291e-01 4.677208374314301e-01 4.218042672492046e-01
 -2.388906307961481e-01 4.606604799699811e-01 4.601285371386465e-01
 3.832652404868483e-02 4.994671283214606e-01 3.855368322410799e-02
 5.737037460984222e-02 4.991762368176969e-01 6.391704156616379e-09
 1.925121450915366e-02 4.992443541093192e-01 7.720754621721818e-02
 1.514501422439370e-09 4.985047278169759e-01 1.159223823718284e-01
 -1.955716959025262e-02 4.972387546748260e-01 1.546619333814724e-01
 -3.953168923893659e-02 4.954327562733775e-01 1.933951985901081e-01
 -6.001300941827548e-02 4.930656579237253e-01 2.320990497692816e-01
 -8.106662766890535e-02 4.901132971063427e-01 2.707614453600395e-01
 -1.027333335964279e-01 4.865447643406304e-01 3.093842216823875e-01
 -1.250300660770292e-01 4.823242791774727e-01 3.479855441197184e-01
 -1.479520169040092e-01 4.774101668809009e-01 3.866012357515626e-01
 -1.714757058417626e-01 4.717545355825929e-01 4.252849933454916e-01
 -1.955625967652579e-01 4.653019327503210e-01 4.641073772625527e-01
 -2.201631735493793e-01 4.579874209845226e-01 5.031535814990048e-01
 7.653608907998971e-02 4.983687744485158e-01 3.841319867647155e-02
 9.541779610255512e-02 4.977183845185166e-01 6.344452637410290e-09
 5.769836748919651e-02 4.985059479550252e-01 7.702328244561907e-02
 3.875100689797479e-02 4.981314450183328e-01 1.157866735112552e-01
 1.955717264417712e-02 4.972387546454400e-01 1.546619333624038e-01
 1.541172530787583e-09 4.958171484489901e-01 1.936114793876422e-01
 -2.001552949064910e-02 4.938502798838935e-01 2.326036446978585e-01
 -4.056142986782874e-02 4.913159537856416e-01 2.716151441928655e-01
 -6.168623986878677e-02 4.881874638816922e-01 3.106338565602629e-01
 -8.341533180101729e-02 4.844329514785899e-01 3.496614696341398e-01
 -1.057519607800708e-01 4.800155380600763e-01 3.887158650866359e-01
 -1.286788529102867e-01 4.748919928046823e-01 4.278329270692448e-01
 -1.521602539852020e-01 4.690123076762849e-01 4.670678736290101e-01
 -1.761444360573774e-01 4.623189472838954e-01 5.064959074668995e-01
 -2.005670307933882e-01 4.547452742587659e-01 5.462116920353320e-01
 1.145087493841574e-01 4.965476804027220e-01 3.817200378215276e-02
 1.331601151156167e-01 4.955471917607801e-01 6.280123370385223e-09
 9.597867510146663e-02 4.970354882038029e-01 7.664649685014820e-02
 7.740043827753741e-02 4.970139669474476e-01 1.153734813026746e-01
 5.862630868758122e-02 4.964829046998659e-01 1.543048286500307e-01
 3.953169231856413e-02 4.954327562140536e-01 1.933951985479543e-01
 2.001553260237817e-02 4.938502798536379e-01 2.326036446746204e-01
 1.572505567376365e-09 4.917171876664496e-01 2.718955476560719e-01
 -2.056980438268673e-02 4.890095321475413e-01 3.112448876845937e-01
 -4.172622741387293e-02 4.856990874944663e-01 3.506368756119583e-01
 -6.347957255148640e-02 4.817530317102139e-01 3.900706472571652e-01
 -8.581872880509538e-02 4.771332470246569e-01 4.295620230395788e-01
 -1.087117426121684e-01 4.717940688813636e-01 4.691462266720311e-01
 -1.321067546332826e-01 4.656858315036537e-01 5.088813446990489e-01
 -1.559328433439461e-01 4.587485863354641e-01 5.488506090803786e-01
 -1.801024452940129e-01 4.509126705477670e-01 5.891641998501796e-01
 1.521182885330392e-01 4.940198622838965e-01 3.781875770975725e-02
 1.704625772632131e-01 4.926818946406958e-01 6.199492025503885e-09
 1.339772188948815e-01 4.948427531033412e-01 7.605982287952699e-02
 1.158456596293046e-01 4.951605232563606e-01 1.146641153333483e-01
 9.755968340544738e-02 4.949743335590057e-01 1.535745942530947e-01
 7.898471986759212e-02 4.942798738210187e-01 1.927366780455124e-01
 6.001301252429614e-02 4.930656578328281e-01 2.320990496997251e-01
[...]
      <PointData>
        <DataArray type="Float32" Name="phi" format="ascii">
 -3.654943999120697e-07
 -4.231531300358249e-07
 6.742855984676055e-07
 -2.245893254704256e-07
 -5.070544545349165e-07
 -5.958961137308982e-07
 -5.901795173124391e-07
 -3.002583748301646e-07
 -7.491674685056182e-07
 -2.294147508630218e-07
 -5.793184640334736e-07
 -6.887961029322653e-07
 -4.024310662487096e-07
 -9.822712685458868e-07
 -3.409497869588662e-07
 -5.201904346163744e-07
 -4.343618635327395e-07
 -5.714184602156891e-07
 -3.476051170236971e-07
 -3.016447968628988e-07
 -6.639933199936721e-07
 -7.678702473867816e-08
 -3.612066911684586e-07
 -4.104434405682866e-07
 -8.652141670895119e-07
 -2.511320125742067e-07
 -6.334953146502897e-07
 -1.281127759433787e-08
 -5.969707609354558e-07
 -3.562625883746229e-07
 -4.429881613199349e-07
 -5.822615233852524e-07
 -7.710153608897485e-07
 -8.107470897966707e-07
 -2.683556854510272e-07
 -6.387761935511271e-07
 -9.292770281610352e-07
 -1.533469856096481e-07
 -9.683546008942834e-07
 -7.866713347959298e-07
 -4.075453770013837e-07
 -1.820485702741514e-07
 -4.399493376272545e-07
 -8.147487751131166e-08
 -6.282679703706329e-07
 -8.749145013475790e-07
 -5.415179384904434e-07
 -7.747764090848541e-07
 -9.760135877279197e-07
 -2.624711041288030e-07
 -9.188315021613214e-07
 -9.728677076714654e-07
 -9.697440159217585e-07
 -7.480731799014428e-07
 -1.975902800821494e-07
 -3.375474107447651e-07
 -4.892521049404408e-07
 -8.232702353172527e-09
 -2.574681070011131e-07
 -6.502231719718310e-08
 -3.847989314964551e-07
 -4.304380279984699e-07
 -4.060347048029378e-07
 -2.581185133410102e-07
 -8.686383194955738e-07
 -4.998823111002082e-08
 -4.061213798034480e-07
 -4.160368216599153e-09
 -7.364495288042505e-07
 -8.104591019408858e-07
 -7.265381035126417e-07
 -4.596018519653633e-07
 -5.067740371789142e-08
 -1.885118776079331e-07
 -7.222180407606693e-07
 -3.898272064040142e-07
 -6.472394428191919e-07
 -7.787742500320327e-07
 -1.443753148699933e-07
 -4.160216060533628e-09
 -1.773292200302201e-07
 -7.253012362928857e-08
 1.780465573864021e-07
 -5.358935090682415e-07
 -2.104999585195166e-07
 -8.980467204322551e-07
 -4.219748024891778e-07
 -8.415253685001289e-07
 -2.130696197810700e-07
 -2.040642764766787e-07
 -9.730489289871969e-07
 -4.061208788708193e-07
 -4.892516084487042e-07
 -1.773292578888253e-07
 1.492528122204462e-07
 -3.750049333284267e-07
 9.872380424269522e-08
 -6.291019236659423e-07
 -5.106508602636950e-07
 -5.164192974360660e-07
 -5.565166282250900e-07
 -7.175790441293906e-07
 -6.184531222142020e-07
 -1.564353960259446e-07
 -5.714850520033288e-07
 -3.375474145750346e-07
 -5.415180217571702e-07
 -7.364484202465604e-07
 -7.253058037504090e-08
 -3.750049653028498e-07
 -6.206187861956813e-07
 -2.790675319164215e-07
 -2.553027466656310e-07
 -4.279359477332711e-07
 -7.848433680734956e-07
 -6.447773646112154e-07
 -2.859724775872152e-07
 -2.282551723187254e-07
 -4.831696984730627e-07
 -5.235988680962755e-07
 -8.749144250752572e-07
 -1.533472070991415e-07
 -8.232809267649799e-09
 -8.104649014128995e-07
 1.780524235828196e-07
 9.872435979829675e-08
 -2.790674181185615e-07
 -1.505211962848918e-07
 -3.787093377227713e-07
 -8.718894515258313e-07
 -9.581766814426018e-07
 -7.280769737105786e-08
 -8.845346015640132e-07
 -5.991452516895812e-07
 -3.896786732182633e-07
 -5.362596087188365e-07
 -9.292771760982532e-07
 -3.562629001252482e-07
 -7.747760378262747e-07
 -2.574683490297325e-07
 -7.265447725113283e-07
 -5.358926702392353e-07
 -6.291019701287759e-07
 -2.553026894336341e-07
 -3.787093007523445e-07
 -9.273176880819634e-07
 -4.320614760411345e-08
 -5.329567731027218e-07
 -7.722485670935697e-07
 -2.466182498217506e-07
 -2.347533008539848e-07
 -9.228615788225980e-08
 -7.488030366320508e-07
 -5.969710089592795e-07
 -3.612071360903357e-07
 -9.683545725835963e-07
 -9.760126495894639e-07
 -6.502236554739582e-08
 -4.596074175688969e-07
 -2.104998588214890e-07
 -5.106507166008356e-07
 -4.279358272740730e-07
 -8.718893227399604e-07
 -4.320609908736728e-08
 -7.450039727352475e-07
 -3.870736285382925e-07
 -9.945265178612495e-07
 -5.179025516222069e-07
 -8.797642656599436e-07
 -7.402165987935305e-07
 -6.660826658566599e-07
 -7.678749180950462e-08
 -4.343624472880059e-07
 -4.429883433965109e-07
 -7.866710548531941e-07
 -2.624707737819421e-07
 -3.847733168749201e-07
 -5.067740382891373e-08
 -8.980461131957718e-07
 -5.164190961526316e-07
 -7.848431430312885e-07
 -9.581764475186105e-07
 -5.329566216127901e-07
 -3.870735287847538e-07
 -1.635158842216988e-07
 -1.769601146728306e-07
 -8.826857877952676e-07
 -1.170574975839500e-08
 -8.518307137994618e-07
 -9.457599625672941e-07
 -5.201909468177668e-07
 -6.887969457580745e-07
 -4.104437091312363e-07
 -5.822614677630789e-07
 -4.075452441076877e-07
 -9.188279760929952e-07
 -4.304366193474962e-07
 -1.885117187350183e-07
 -4.219745343148062e-07
 -5.565163125886841e-07
 -6.447770419248933e-07
 -7.280752450933292e-08
 -7.722482596173030e-07
 -9.945262496313667e-07
 -1.769599873302496e-07
 -4.002383264811726e-07
 -5.835154516242724e-07
 -2.517445182315114e-07
 -7.856835886332902e-07
 -2.356359842248246e-07
 -5.793192192626861e-07
 -3.002596246637346e-07
 -5.714187689687122e-07
 -8.652139794063096e-07
 -7.710150139450533e-07
 -1.820484820114210e-07
 -9.728663283303796e-07
 -4.060343888889761e-07
 -7.222175808507814e-07
 -8.415248519133556e-07
 -7.175785560198378e-07
 -2.859720981684966e-07
 -8.845340840890614e-07
 -2.466179103155497e-07
 -5.179021628221037e-07
 -8.826853800103507e-07
 -5.835152100397423e-07
 -4.329646217660077e-07
 -1.852607617314206e-07
 -4.011621250743502e-07
 -3.585064122790804e-07
 -5.901805505970081e-07
 -5.070564093601071e-07
 -4.024315196637929e-07
 -3.476052284345776e-07
 -2.511319812104063e-07
 -8.107455877759406e-07
 -4.399473195748627e-07
 -9.697421212151447e-07
 -2.581181210437045e-07
 -3.898267136315248e-07
 -2.130691981183652e-07
 -6.184524994345963e-07
 -2.282547013621183e-07
 -5.991446104802733e-07
 -2.347527951473971e-07
 -8.797635332458142e-07
 -1.170547481166295e-08
 -2.517439842142366e-07
 -1.852603650487339e-07
 -5.567136746043033e-07
 3.191683176639870e-07
 4.582005947995071e-07
 -2.245906443043566e-07
 -4.231563889289802e-07
 -7.491672963100271e-07
 -9.822701165784764e-07
 -3.016445155323844e-07
 -6.334902707405554e-07
 -2.683532925873422e-07
 -8.147457025708960e-08
 -7.480705753737382e-07
 -8.686374982080913e-07
 -6.472386639422290e-07
 -2.040636924993677e-07
 -1.564348294791351e-07
 -4.831689194295663e-07
 -3.896778836276482e-07
 -9.228557584783914e-08
 -7.402155182134607e-07
 -8.518294325465803e-07
 -7.856820979368351e-07
 -4.011609373022473e-07
 3.191694670778844e-07
 3.239475143690385e-07
 1.787890024917971e-07
 -3.654944110698111e-07
 6.742857293629001e-07
 -5.958956044160857e-07
 -2.294466983077115e-07
 -3.409486514227567e-07
 -6.639913553985188e-07
 -1.280820588478448e-08
 -6.387734502455444e-07
 -6.282649151478914e-07
 -1.975896837813629e-07
 -4.998778052600628e-08
 -7.787732295150285e-07
 -9.730477886771283e-07
 -5.714840558002088e-07
 -5.235978410844666e-07
 -5.362584951651428e-07
 -7.488016778856021e-07
 -6.660811509018316e-07
 -9.457579073779421e-07
 -2.356344121490217e-07
 -3.585201420186479e-07
 4.582174017997431e-07
 1.787931827035294e-07
 -5.256933101605021e-07
 7.952429471602684e-07
 7.369472571072677e-07
 8.931273498546943e-10
 2.501678945110442e-07
 4.950843575102226e-07
 8.793097494574909e-08
 9.516520063090894e-07
 4.204967476439947e-07
 8.063894092469326e-07
 7.704256757001815e-07
 2.620739939507288e-07
 9.066141106739423e-07
 7.080067588871586e-07
 3.458315686044600e-07
 1.441980285177280e-07
 1.392039631342712e-07
 5.796520881062861e-07
 8.935055308967321e-07
 9.761058424873070e-07
 6.297852483960753e-08
 2.693717231494475e-07
 1.354467364933498e-07
 6.004759269817583e-07
 8.927077833620345e-07
 4.232379526847296e-07
 6.411540558470818e-07
 -2.068963625423414e-07
 2.184910510294458e-07
 7.270822012239719e-07
 6.676867426724797e-07
 6.525976276039458e-07
 9.743794524563754e-07
 6.344305180094878e-07
 5.649693181064563e-07
 1.349455829302570e-07
 -7.658661954623724e-08
 9.119508178612179e-07
 1.267045114383691e-07
 3.002827236864292e-07
 9.250628636436886e-07
 2.411175811234401e-07
 5.997131119483967e-07
 4.580252843666699e-10
 -8.424242459170728e-07
 -5.829455930195238e-07
 2.199254145462959e-08
 8.780081459658362e-07
 2.452026883759117e-07
 7.116521453243152e-07
 4.621970203233516e-07
 7.146558542725501e-07
 3.812489680621312e-07
 -2.458411351158318e-07
 -1.818060648695052e-07
 -6.413255309034582e-07
 2.025947359873825e-07
 6.077597752840447e-07
 8.979468159031612e-07
 9.032473037295929e-07
 4.878228628824033e-07
 2.415688979962027e-07
 2.311048497016799e-07
 -5.173986111217665e-07
 -2.769055517659602e-07
 -8.366863849529338e-07
 -2.966181241181864e-07
 9.026022184110971e-07
 2.282059740066344e-07
 8.298006413109960e-07
 4.990855027031671e-07
 6.596188986129903e-07
 2.231127357310569e-07
 -4.854415938115864e-07
 -7.467911604108757e-07
 -1.409564825971543e-07
 -4.912149324520776e-07
 -8.226517129172883e-07
 -2.882845044904769e-07
 8.884804921782674e-07
 6.552390352521087e-08
 5.580656432524478e-07
 1.988924565043959e-07
 7.381601988543096e-07
 2.678733309613435e-07
 3.485965549554493e-08
 -5.824657937636424e-07
 -5.879815594966864e-07
 -5.741068637710178e-07
 -6.164373276273949e-07
 -7.917109023924951e-07
 -6.191758572526851e-08
 7.278999413218301e-07
 1.105582153604345e-07
 8.782748991409406e-07
 8.875804606844895e-07
 -6.964798321407173e-08
 -6.902278582021637e-08
 -5.903298805343127e-07
 -3.619142229238648e-07
 -5.230411288525971e-07
 -1.748532645340362e-07
 -6.028714101269372e-07
 -6.592132847926813e-07
 -7.140075173883709e-07
 -3.710605562812219e-07
 2.549992960121372e-07
 5.789014322354902e-07
 1.430812650582425e-07
 6.911289518463093e-08
 2.296154505421200e-07
 -3.014161009118332e-07
 -2.198898368943603e-07
 -2.249148089994435e-07
 -4.256200244467934e-07
 -4.434145752796326e-07
 -1.271998087970516e-07
 -3.260561938223105e-07
 -4.218294055169380e-07
 -8.548056460444542e-07
 -5.862278285029277e-08
 7.408338578152041e-07
 3.775804107153391e-07
 9.580031453682025e-07
 6.767259694839822e-07
 5.200541497440980e-08
 -9.984284571884494e-07
 -5.923704390897733e-07
 -2.635485169544260e-07
 -7.692420589955340e-07
 -8.270126494736019e-07
 -6.980540370737920e-07
 -9.804850488182026e-07
 -1.531631822482282e-07
 -5.933002074631766e-07
 -8.653217714593708e-07
 -1.512651628399198e-07
 8.521969344643665e-07
 2.328725258182729e-07
 6.277721061875852e-07
 -1.590490958935931e-07
 -6.804459948828168e-07
 -8.678062480838022e-07
 -3.593214494279628e-07
 -2.644719576672117e-07
 -1.352588953063005e-07
 -3.312165796076627e-07
 -8.343100436070117e-07
 -6.883422598025213e-07
 -6.677870514892881e-07
 -6.842217579738907e-07
 -5.944059571771909e-07
 -4.174273406931661e-07
 -3.302781050873449e-07
 2.009719017870282e-07
 2.252940801694692e-07
 1.511149715360816e-07
 -6.696810702644385e-07
 -4.198631243790274e-07
 -7.847134736449490e-07
 -4.160398801023035e-07
 -4.074189661751326e-07
 -4.531335042745610e-07
 -1.057870002707517e-07
 -3.739971169425260e-07
 -9.619073099154107e-07
 -3.337285772175846e-07
 -7.883267888475487e-07
 -8.977054417602659e-07
 -5.842176259429621e-08
 -8.211265769553222e-07
 -5.975005440417291e-07
 -2.605386084653105e-07
 5.727113547848717e-07
 -6.986986860191280e-07
 -9.598718631043113e-07
 -9.926523884540295e-07
 -4.615571495558690e-07
 -8.567762638245213e-07
 -9.643544915949320e-07
 -3.143005638528429e-07
 -7.774212936739744e-07
 -3.585368198999461e-07
 -5.449719678862763e-07
 -2.824137455004205e-07
 -6.189699067182808e-07
 -2.493588768803789e-08
 -6.316948409357259e-07
 -5.532725437795705e-07
 -6.104357442859865e-07
 -2.891998663878681e-07
 -8.611463891972093e-08
 9.208180541397937e-07
 -3.971927170498546e-07
 -7.085146254137697e-07
 -2.705023491866854e-07
 -6.094186327243456e-07
 -3.038675200350838e-07
 -3.843125851998863e-07
 -5.558113781445329e-07
 -9.281655422577195e-07
 -4.402594904195922e-07
 -3.318444997679748e-07
 -8.942646195775339e-07
 -5.333467626988941e-07
 -4.655863098390611e-07
 -9.992834173466747e-07
 -1.791925237082381e-07
 -4.075510953160943e-07
 -1.439197665487058e-07
 -8.607126163462375e-07
 -5.639101365861876e-07
 1.788173947803173e-07
 -7.735475249237567e-08
 -6.140032012824648e-07
 -5.023369242795894e-08
 -9.896815442722584e-07
 -1.345147415676706e-08
 -4.410564751200496e-07
 -6.556023681159040e-07
 -3.992044400602524e-07
 -3.470437607289156e-07
 -6.961340576761010e-07
 -9.301815578899308e-07
 -4.341781523198307e-08
 -9.941143516156714e-07
 -8.201122000395245e-07
 -6.834266708666270e-07
 -6.877360774204533e-07
 -7.002162906166731e-07
 -9.868614615493598e-07
 -5.867064841735825e-07
 -7.924112742085931e-07
 3.338972214272928e-07
 -4.660934071476497e-07
 -8.037662017623681e-07
 -6.823067591477106e-07
 -1.880208357896151e-07
 -8.471960521450050e-07
 -6.229159506543347e-07
 -4.822665783388302e-08
 -7.680115488017947e-07
 -9.061099283114160e-07
 -9.153472028677889e-07
 -6.367882626756582e-08
 -4.604548337061587e-07
 -5.906437868796743e-07
 -2.368681986109067e-07
 -3.231608834974864e-07
 -9.323282975093328e-07
 -4.323545721440780e-08
 -4.930087584842369e-07
 -8.919149769859303e-07
 -4.999205059919021e-07
 -2.482274831239195e-07
 -4.177964790241795e-07
 -6.053672998440618e-07
 -2.588161380767673e-07
 -6.628814216425027e-07
 -5.555374735233265e-07
 -1.360588470777913e-07
 -2.873789353152745e-07
 -5.959585291925862e-08
 -5.769663402044323e-07
 -6.201792979165788e-08
 -7.229012851661665e-07
 -8.078868426464325e-07
 -1.170215856438617e-07
 -8.161646111171095e-07
 -2.268280888673146e-07
 -6.004042559237810e-07
 -2.636030230762643e-07
 -9.663361311140761e-07
 -5.583662171515513e-07
 -3.722237056358324e-07
 -3.893986931791105e-07
 -3.647634210790507e-07
 7.952444617265186e-07
 7.183887662520760e-07
 8.933570549984893e-10
 8.201843504362927e-08
 4.950850216456359e-07
 8.201821066755599e-08
 3.084105177908469e-07
 4.204972653409911e-07
 7.556617216408767e-07
 3.084101943828799e-07
 6.646857608760826e-07
 9.066144727176706e-07
 6.220893122854676e-07
 6.220891929364925e-07
 6.646854687764048e-07
 2.990216635412324e-07
 5.796524265022640e-07
 1.768577281291428e-07
 8.200731398400052e-07
 1.768575591531985e-07
 2.990213651132834e-07
 7.675374870119711e-07
 6.004761866629238e-07
 8.442968957300678e-07
 5.122129710377621e-07
 5.122129057566482e-07
 8.442967602828588e-07
 7.675372885040943e-07
 8.679915209919287e-07
 6.676869155342047e-07
 2.036214595824148e-07
 8.416563057611626e-08
 9.566035759078773e-07
 8.416551589007781e-08
 2.036212474187948e-07
 8.679913945375262e-07
 4.055790482349053e-07
 1.267048912456659e-07
 4.948905937274262e-07
 8.712240520125647e-07
 6.474534046674307e-07
 6.474533685851824e-07
 8.712239837338487e-07
 4.948904226420581e-07
 4.055788088708212e-07
 1.091891163040870e-07
 8.780080553716374e-07
 7.075194475847368e-07
 4.294135698135193e-07
 7.843444927990717e-07
 6.820866182977170e-08
 7.843444557176227e-07
 4.294134335891542e-07
 7.075193559913373e-07
 1.091887809057113e-07
 4.615225237536436e-07
 6.077597861642303e-07
 8.914582599883758e-07
 9.158733973446687e-07
 8.313145388738619e-07
 4.726809461619297e-07
 4.726809278432498e-07
 8.313145105631747e-07
 9.158733949021780e-07
 8.914582618757549e-07
 4.615223616610820e-07
 4.925616515771836e-07
 2.282062963043785e-07
 9.550012280978848e-08
 1.336178255817444e-07
 6.196576036732182e-07
 9.923769468400678e-07
 2.526273533698387e-07
 9.923769587194542e-07
 6.196575430550411e-07
 1.336175922128646e-07
 9.549981239143079e-08
 4.925615421091933e-07
 9.960233612327229e-07
 6.552442399776481e-08
 9.976567914016243e-07
 9.416641011394944e-07
 5.655844115270980e-07
 6.536073987595259e-07
 5.514842273957044e-07
 5.514842125187158e-07
 6.536073678953258e-07
 5.655843552387907e-07
 9.416642101633954e-07
 9.976570072289803e-07
 9.960237068451505e-07
 5.051640780129318e-07
 1.105587190686208e-07
 6.596457795549071e-07
 3.833496209360021e-07
 8.597901667295460e-07
 3.646681813185282e-07
 3.989843998519760e-07
 8.956670251025756e-07
 3.989843494478507e-07
 3.646680902802402e-07
 8.597902401152879e-07
 3.833494713889607e-07
 6.596458460572663e-07
 5.051640736830620e-07
 7.720539172417773e-07
 5.789009878132134e-07
 3.325367555762071e-07
 7.325136158753409e-07
 2.453277553327027e-07
 9.539972575245415e-07
 6.677020732981376e-07
 6.942180188485025e-07
 6.942180242885954e-07
 6.677020827350333e-07
 9.539973788719180e-07
 2.453275476099748e-07
 7.325137474367693e-07
 3.325365661721591e-07
 7.720543507838684e-07
 8.731839128417462e-07
 3.775801624694708e-07
 8.271168718820832e-07
 3.832352254429239e-07
 5.294280278622665e-07
 9.709359773957260e-07
 8.731980797316297e-07
 9.869728100353470e-07
 2.040096082067677e-07
 9.869728767597508e-07
 8.731981819831702e-07
 9.709361872278777e-07
 5.294280194245715e-07
 3.832351140875545e-07
 8.271173392859765e-07
 8.731846754539418e-07
 2.550646903687337e-07
 2.328724785227720e-07
 7.845183723764748e-07
 7.077441995795297e-07
 5.025504767885991e-08
 9.418589800302968e-07
 6.065906027474810e-07
 4.636386231604561e-07
 7.554294794154259e-07
 7.554295010647749e-07
 4.636386022882633e-07
 6.065906589247660e-07
 9.418592925580782e-07
 5.025468141628409e-08
 7.077445417502659e-07
 7.845189583521872e-07
 2.550645029630871e-07
 3.884089418981773e-07
 2.252937204572092e-07
 2.293639902450906e-07
 1.544092745886516e-07
 2.281817338412040e-07
 5.332658661316714e-07
 4.461500577868094e-07
 3.742297292053109e-07
 7.280394499487031e-07
 2.829055729680618e-07
 7.280395134534601e-07
 3.742296903475051e-07
 4.461500712205080e-07
 5.332659807066875e-07
 2.281815313365243e-07
 1.544089521798853e-07
 2.293638019512656e-07
 3.884092024675212e-07
 3.468696389008485e-07
 5.727093467244870e-07
 5.205018381859716e-07
 1.201560383412570e-07
 6.707975841457881e-07
 7.778462491891958e-07
 5.221101339047962e-07
 4.658410244218203e-07
 7.586941609405429e-07
 4.362660860346423e-07
 4.362660972478949e-07
 7.586943260307066e-07
 4.658410968083615e-07
 5.221103271946248e-07
 7.778468322783283e-07
 6.707981502485083e-07
 1.201557444652224e-07
 5.205023541066112e-07
 3.468699267816788e-07
 2.515051209517338e-07
 9.208184844622380e-07
 1.499620532197099e-07
 1.929168402803327e-08
 6.603178130948351e-07
 5.590461984450457e-07
 4.251121263898483e-07
 4.394333252832894e-08
 7.014715336373101e-07
 7.536110090411441e-07
 2.295961901710442e-07
 7.536111904515863e-07
 7.014718521602958e-07
 4.394311658995065e-08
 4.251124140486340e-07
 5.590467381244579e-07
 6.603187159281987e-07
 1.929137660727775e-08
 1.499620397860113e-07
 2.515053640905762e-07
 5.154108159155513e-07
 1.788167350857961e-07
 8.649881414468652e-07
 2.027467940202143e-07
 1.673230946019899e-07
 3.206671594924160e-09
 6.207521608958544e-07
 9.726718187552663e-07
 8.231298619376659e-07
 5.196788591677048e-07
 8.718298061261009e-08
 8.718296895526834e-08
 5.196791585948546e-07
 8.231306561912177e-07
 9.726730797465777e-07
 6.207530041102416e-07
 3.214066457424281e-09
 1.673233581689360e-07
 2.027470547005805e-07
 8.649891961587386e-07
 5.154116931027630e-07
 2.351990370241808e-07
 3.338950133047192e-07
 2.890025071478064e-07
 9.670719874899092e-07
 1.772302492542011e-07
 3.265539455510336e-07
 2.923947122202009e-07
 6.386156278237465e-07
 1.244286385038151e-08
 1.213976452696386e-08
 4.276233191990997e-07
 4.857162361204814e-07
 4.276235943123652e-07
 1.213971989599827e-08
 1.244282143986197e-08
 6.386167028527012e-07
 2.923952420186282e-07
 3.265545789332691e-07
 1.772306316150107e-07
 9.670731447863901e-07
 2.890034888070048e-07
 2.352006429617859e-07
 1.948343671953623e-07
 -4.177959593842928e-07
 1.247337916288060e-07
 3.716366014927530e-08
 1.844043950871566e-07
 5.022956496292252e-07
 9.625154683279291e-07
 4.699670931307409e-07
 -2.137081942521490e-07
 -3.959978533973896e-08
 6.493008353203322e-09
 2.115257857759900e-08
 2.115352926157499e-08
 6.489204396054049e-09
 -3.961087530202079e-08
 -2.136942323094360e-07